
     Program PHONON v.6.2 (svn rev. 13949:13950) starts on 24Dec2018 at  1:15:34 

     This program is part of the open-source Quantum ESPRESSO suite
     for quantum simulation of materials; please cite
         "P. Giannozzi et al., J. Phys.:Condens. Matter 21 395502 (2009);
         "P. Giannozzi et al., J. Phys.:Condens. Matter 29 465901 (2017);
          URL http://www.quantum-espresso.org", 
     in publications or presentations arising from this work. More details at
     http://www.quantum-espresso.org/quote

     Parallel version (MPI & OpenMP), running on     272 processor cores
     Number of MPI processes:                68
     Threads/MPI process:                     4

     MPI processes distributed on     1 nodes
     R & G space division:  proc/nbgrp/npool/nimage =      68

     Reading data from directory:
     ./GaAs.save

     IMPORTANT: XC functional enforced from input :
     Exchange-correlation      = LDA ( 1  1  0  0 0 0)
     Any further DFT definition will be discarded
     Please, verify this is what you really want

               file Ga.pz-dn-rrkjus_psl.0.2.UPF: wavefunction(s)  4S 3D renormalized
 
     Parallelization info
     --------------------
     sticks:   dense  smooth     PW     G-vecs:    dense   smooth      PW
     Min          11      11      3                  208      208      32
     Max          12      12      4                  212      212      36
     Sum         769     769    235                14211    14211    2277
 

     Check: negative/imaginary core charge=   -0.000007    0.000000

     Calculation of q =    0.5000000  -0.5000000   0.8333333
 
     Parallelization info
     --------------------
     sticks:   dense  smooth     PW     G-vecs:    dense   smooth      PW
     Min          11      11      3                  208      208      38
     Max          12      12      4                  212      212      45
     Sum         769     769    265                14211    14211    2891
 


     bravais-lattice index     =            2
     lattice parameter (alat)  =      10.6031  a.u.
     unit-cell volume          =     298.0132 (a.u.)^3
     number of atoms/cell      =            2
     number of atomic types    =            2
     number of electrons       =        18.00
     number of Kohn-Sham states=           20
     kinetic-energy cutoff     =      50.0000  Ry
     charge density cutoff     =     200.0000  Ry
     Exchange-correlation      = LDA ( 1  1  0  0 0 0)

     celldm(1)=  10.603075  celldm(2)=   0.000000  celldm(3)=   0.000000
     celldm(4)=   0.000000  celldm(5)=   0.000000  celldm(6)=   0.000000

     crystal axes: (cart. coord. in units of alat)
               a(1) = (  -0.500000   0.000000   0.500000 )  
               a(2) = (   0.000000   0.500000   0.500000 )  
               a(3) = (  -0.500000   0.500000   0.000000 )  

     reciprocal axes: (cart. coord. in units 2 pi/alat)
               b(1) = ( -1.000000 -1.000000  1.000000 )  
               b(2) = (  1.000000  1.000000  1.000000 )  
               b(3) = ( -1.000000  1.000000 -1.000000 )  


     PseudoPot. # 1 for Ga read from file:
     ../PP_DIR/Ga.pz-dn-rrkjus_psl.0.2.UPF
     MD5 check sum: 337958ae198bc3768054a43796a587a1
     Pseudo is Ultrasoft + core correction, Zval = 13.0
     Generated using "atomic" code by A. Dal Corso  v.5.0.2 svn rev. 9415
     Using radial grid of 1205 points,  6 beta functions with: 
                l(1) =   0
                l(2) =   0
                l(3) =   1
                l(4) =   1
                l(5) =   2
                l(6) =   2
     Q(r) pseudized with 0 coefficients 


     PseudoPot. # 2 for As read from file:
     ../PP_DIR/As.pz-n-rrkjus_psl.0.2.UPF
     MD5 check sum: f80104272e9b817acfe428865afbdb7e
     Pseudo is Ultrasoft + core correction, Zval =  5.0
     Generated using "atomic" code by A. Dal Corso  v.5.0.2 svn rev. 9415
     Using radial grid of 1209 points,  4 beta functions with: 
                l(1) =   0
                l(2) =   0
                l(3) =   1
                l(4) =   1
     Q(r) pseudized with 0 coefficients 


     atomic species   valence    mass     pseudopotential
        Ga            13.00    69.72300     Ga( 1.00)
        As             5.00    74.92200     As( 1.00)

     24 Sym. Ops. (no inversion) found



   Cartesian axes

     site n.     atom                  positions (alat units)
         1           Ga  tau(   1) = (   0.0000000   0.0000000   0.0000000  )
         2           As  tau(   2) = (  -0.7500000   0.7500000   0.7500000  )

     number of k points=    80
                       cart. coord. in units 2pi/alat
        k(    1) = (   0.0000000   0.0000000   0.0000000), wk =   0.0312500
        k(    2) = (   0.5000000  -0.5000000   0.8333333), wk =   0.0000000
        k(    3) = (  -0.2500000   0.2500000  -0.2500000), wk =   0.0312500
        k(    4) = (   0.2500000  -0.2500000   0.5833333), wk =   0.0000000
        k(    5) = (   0.5000000  -0.5000000   0.5000000), wk =   0.0312500
        k(    6) = (   1.0000000  -1.0000000   1.3333333), wk =   0.0000000
        k(    7) = (   0.0000000   0.5000000   0.0000000), wk =   0.0625000
        k(    8) = (   0.5000000  -0.0000000   0.8333333), wk =   0.0000000
        k(    9) = (   0.7500000  -0.2500000   0.7500000), wk =   0.0625000
        k(   10) = (   1.2500000  -0.7500000   1.5833333), wk =   0.0000000
        k(   11) = (   0.5000000   0.0000000   0.5000000), wk =   0.0625000
        k(   12) = (   1.0000000  -0.5000000   1.3333333), wk =   0.0000000
        k(   13) = (   0.0000000  -1.0000000   0.0000000), wk =   0.0625000
        k(   14) = (   0.5000000  -1.5000000   0.8333333), wk =   0.0000000
        k(   15) = (  -0.5000000  -1.0000000   0.0000000), wk =   0.0625000
        k(   16) = (   0.0000000  -1.5000000   0.8333333), wk =   0.0000000
        k(   17) = (   0.2500000   0.2500000   0.2500000), wk =   0.0625000
        k(   18) = (   0.7500000  -0.2500000   1.0833333), wk =   0.0000000
        k(   19) = (   0.2500000  -0.2500000  -0.2500000), wk =   0.0312500
        k(   20) = (   0.7500000  -0.7500000   0.5833333), wk =   0.0000000
        k(   21) = (   0.2500000  -0.2500000   0.2500000), wk =   0.0312500
        k(   22) = (   0.7500000  -0.7500000   1.0833333), wk =   0.0000000
        k(   23) = (  -0.2500000   0.2500000   0.2500000), wk =   0.0312500
        k(   24) = (   0.2500000  -0.2500000   1.0833333), wk =   0.0000000
        k(   25) = (  -0.2500000  -0.2500000  -0.2500000), wk =   0.0625000
        k(   26) = (   0.2500000  -0.7500000   0.5833333), wk =   0.0000000
        k(   27) = (  -0.5000000  -0.5000000  -0.5000000), wk =   0.0625000
        k(   28) = (   0.0000000  -1.0000000   0.3333333), wk =   0.0000000
        k(   29) = (  -0.5000000   0.5000000   0.5000000), wk =   0.0312500
        k(   30) = (   0.0000000  -0.0000000   1.3333333), wk =   0.0000000
        k(   31) = (   0.0000000  -0.5000000   0.0000000), wk =   0.0625000
        k(   32) = (   0.5000000  -1.0000000   0.8333333), wk =   0.0000000
        k(   33) = (   0.0000000   0.0000000   0.5000000), wk =   0.0312500
        k(   34) = (   0.5000000  -0.5000000   1.3333333), wk =   0.0000000
        k(   35) = (   0.0000000   0.0000000  -0.5000000), wk =   0.0312500
        k(   36) = (   0.5000000  -0.5000000   0.3333333), wk =   0.0000000
        k(   37) = (  -0.7500000  -0.2500000  -0.7500000), wk =   0.0625000
        k(   38) = (  -0.2500000  -0.7500000   0.0833333), wk =   0.0000000
        k(   39) = (   0.7500000   0.2500000  -0.7500000), wk =   0.0625000
        k(   40) = (   1.2500000  -0.2500000   0.0833333), wk =   0.0000000
        k(   41) = (  -0.2500000   0.7500000   0.7500000), wk =   0.0625000
        k(   42) = (   0.2500000   0.2500000   1.5833333), wk =   0.0000000
        k(   43) = (   0.7500000   0.7500000  -0.2500000), wk =   0.0625000
        k(   44) = (   1.2500000   0.2500000   0.5833333), wk =   0.0000000
        k(   45) = (   0.7500000  -0.7500000   0.2500000), wk =   0.0312500
        k(   46) = (   1.2500000  -1.2500000   1.0833333), wk =   0.0000000
        k(   47) = (  -0.7500000   0.7500000   0.2500000), wk =   0.0312500
        k(   48) = (  -0.2500000   0.2500000   1.0833333), wk =   0.0000000
        k(   49) = (  -0.7500000   0.2500000  -0.7500000), wk =   0.0625000
        k(   50) = (  -0.2500000  -0.2500000   0.0833333), wk =   0.0000000
        k(   51) = (   0.7500000  -0.2500000  -0.7500000), wk =   0.0625000
        k(   52) = (   1.2500000  -0.7500000   0.0833333), wk =   0.0000000
        k(   53) = (   0.7500000   0.2500000   0.7500000), wk =   0.0625000
        k(   54) = (   1.2500000  -0.2500000   1.5833333), wk =   0.0000000
        k(   55) = (  -0.7500000  -0.2500000   0.7500000), wk =   0.0625000
        k(   56) = (  -0.2500000  -0.7500000   1.5833333), wk =   0.0000000
        k(   57) = (  -0.7500000   0.7500000  -0.2500000), wk =   0.0312500
        k(   58) = (  -0.2500000   0.2500000   0.5833333), wk =   0.0000000
        k(   59) = (  -0.7500000  -0.7500000   0.2500000), wk =   0.0625000
        k(   60) = (  -0.2500000  -1.2500000   1.0833333), wk =   0.0000000
        k(   61) = (   0.7500000  -0.7500000  -0.2500000), wk =   0.0312500
        k(   62) = (   1.2500000  -1.2500000   0.5833333), wk =   0.0000000
        k(   63) = (  -0.5000000  -0.0000000  -0.5000000), wk =   0.0625000
        k(   64) = (   0.0000000  -0.5000000   0.3333333), wk =   0.0000000
        k(   65) = (   0.5000000   0.0000000  -0.5000000), wk =   0.0625000
        k(   66) = (   1.0000000  -0.5000000   0.3333333), wk =   0.0000000
        k(   67) = (   0.0000000   0.5000000   0.5000000), wk =   0.0625000
        k(   68) = (   0.5000000  -0.0000000   1.3333333), wk =   0.0000000
        k(   69) = (   0.5000000   0.5000000   0.0000000), wk =   0.0625000
        k(   70) = (   1.0000000  -0.0000000   0.8333333), wk =   0.0000000
        k(   71) = (   0.5000000  -0.5000000   0.0000000), wk =   0.0312500
        k(   72) = (   1.0000000  -1.0000000   0.8333333), wk =   0.0000000
        k(   73) = (  -0.5000000   0.5000000   0.0000000), wk =   0.0312500
        k(   74) = (   0.0000000  -0.0000000   0.8333333), wk =   0.0000000
        k(   75) = (   0.0000000   0.0000000  -1.0000000), wk =   0.0312500
        k(   76) = (   0.5000000  -0.5000000  -0.1666667), wk =   0.0000000
        k(   77) = (   0.5000000  -1.0000000   0.0000000), wk =   0.0625000
        k(   78) = (   1.0000000  -1.5000000   0.8333333), wk =   0.0000000
        k(   79) = (  -1.0000000   0.0000000  -0.5000000), wk =   0.0625000
        k(   80) = (  -0.5000000  -0.5000000   0.3333333), wk =   0.0000000

     Dense  grid:    14211 G-vectors     FFT dimensions: (  36,  36,  36)

     Estimated max dynamical RAM per process >       4.74 MB

     Estimated total dynamical RAM >     322.20 MB
     Message from routine sym_rho_init:
     some processors have no G-vectors for symmetrization
     Message from routine sym_rho_init:
     some processors have no G-vectors for symmetrization
     Message from routine sym_rho_init:
     some processors have no G-vectors for symmetrization
     Message from routine sym_rho_init:
     some processors have no G-vectors for symmetrization
     Message from routine sym_rho_init:
     some processors have no G-vectors for symmetrization
     Message from routine sym_rho_init:
     some processors have no G-vectors for symmetrization
     Message from routine sym_rho_init:
     some processors have no G-vectors for symmetrization
     Message from routine sym_rho_init:
     some processors have no G-vectors for symmetrization
     Message from routine sym_rho_init:
     some processors have no G-vectors for symmetrization
     Message from routine sym_rho_init:
     some processors have no G-vectors for symmetrization

     Check: negative/imaginary core charge=   -0.000007    0.000000

     The potential is recalculated from file :
     ./_ph0/GaAs.save/charge-density.dat

     Starting wfc are   13 atomic +    7 random wfc

     Band Structure Calculation
     Davidson diagonalization with overlap

     ethr =  5.56E-11,  avg # of iterations = 19.0

     total cpu time spent up to now is       47.0 secs

     End of band structure calculation

          k = 0.0000 0.0000 0.0000 (  1807 PWs)   bands (ev):

    -8.2061  -8.2061  -8.2061  -8.1239  -8.1239  -6.1701   6.7912   6.7912
     6.7912   7.2369  10.4290  10.4290  10.4290  14.2452  17.0280  17.0280
    18.3527  18.3527  18.3527  21.1452

          k = 0.5000-0.5000 0.8333 (  1778 PWs)   bands (ev):

    -8.2855  -8.1829  -8.1810  -8.1237  -8.1220  -4.4385   0.6312   3.8198
     5.5348   9.1764  11.4239  12.0565  13.8948  15.8757  16.7760  18.6091
    20.2434  22.3691  23.9628  24.2500

          k =-0.2500 0.2500-0.2500 (  1799 PWs)   bands (ev):

    -8.2506  -8.1942  -8.1942  -8.1233  -8.1233  -5.4557   2.5166   6.0784
     6.0784   8.1350  11.3239  11.3239  12.7091  15.6436  15.8438  15.8438
    18.7163  22.7171  22.7171  25.4184

          k = 0.2500-0.2500 0.5833 (  1779 PWs)   bands (ev):

    -8.2857  -8.1822  -8.1781  -8.1308  -8.1164  -4.5736   0.8867   4.3735
     5.0416   9.0799  11.0345  12.6900  12.7559  16.6489  17.7750  18.7342
    20.0897  21.2819  23.3884  24.3477

          k = 0.5000-0.5000 0.5000 (  1772 PWs)   bands (ev):

    -8.2882  -8.1857  -8.1857  -8.1190  -8.1190  -4.3343  -0.0703   5.6001
     5.6001   7.6634  11.3411  11.3411  14.3989  17.1864  18.8074  18.8074
    19.3203  20.1052  20.1052  26.4312

          k = 1.0000-1.0000 1.3333 (  1792 PWs)   bands (ev):

    -8.2421  -8.1934  -8.1934  -8.1296  -8.1201  -5.7302   4.0002   5.7225
     5.7225   9.2075   9.8389  12.0409  12.0409  14.1972  16.3921  17.4992
    19.3344  19.3344  20.0908  25.0371

          k = 0.0000 0.5000 0.0000 (  1812 PWs)   bands (ev):

    -8.2720  -8.1805  -8.1805  -8.1364  -8.1164  -5.2137   2.5892   5.0192
     5.0192   8.6081   9.9712  13.4034  13.4034  14.1922  18.0842  18.1897
    20.5689  20.5689  21.1433  25.3700

          k = 0.5000-0.0000 0.8333 (  1777 PWs)   bands (ev):

    -8.3038  -8.1755  -8.1614  -8.1339  -8.1191  -3.6484   0.0811   2.8280
     3.9148  10.5041  11.8194  12.0782  13.7329  16.4908  18.1847  20.7316
    21.6073  22.6031  23.6688  25.5154

          k = 0.7500-0.2500 0.7500 (  1776 PWs)   bands (ev):

    -8.3000  -8.1743  -8.1685  -8.1354  -8.1153  -4.0365   0.3275   3.4016
     4.6616   8.8419  11.4505  12.9515  13.7379  17.1744  18.9601  19.4369
    19.9523  21.0853  24.5876  25.6005

          k = 1.2500-0.7500 1.5833 (  1779 PWs)   bands (ev):

    -8.2857  -8.1822  -8.1781  -8.1308  -8.1164  -4.5736   0.8867   4.3735
     5.0416   9.0799  11.0345  12.6900  12.7559  16.6489  17.7750  18.7342
    20.0897  21.2819  23.3884  24.3477

          k = 0.5000 0.0000 0.5000 (  1780 PWs)   bands (ev):

    -8.2846  -8.1818  -8.1792  -8.1255  -8.1230  -4.4708   0.9808   3.2631
     5.5139   9.4294  12.3513  12.4186  12.5645  15.1788  17.1417  19.5429
    20.1968  21.2839  24.4493  25.5045

          k = 1.0000-0.5000 1.3333 (  1791 PWs)   bands (ev):

    -8.2759  -8.1849  -8.1816  -8.1299  -8.1191  -4.8618   1.6388   3.8999
     5.5746   9.8540  10.7291  12.0089  12.9117  15.1986  17.7627  18.5275
    20.1563  21.0886  22.7581  25.3550

          k = 0.0000-1.0000 0.0000 (  1772 PWs)   bands (ev):

    -8.3210  -8.1537  -8.1537  -8.1515  -8.1088  -3.5615  -0.2377   4.0011
     4.0011   8.0394   8.2790  17.0147  17.0147  17.7918  20.1362  20.3420
    20.3420  20.5027  22.5458  26.4552

          k = 0.5000-1.5000 0.8333 (  1778 PWs)   bands (ev):

    -8.2855  -8.1829  -8.1810  -8.1237  -8.1220  -4.4385   0.6312   3.8198
     5.5348   9.1764  11.4239  12.0565  13.8948  15.8757  16.7760  18.6091
    20.2434  22.3691  23.9628  24.2500

          k =-0.5000-1.0000 0.0000 (  1768 PWs)   bands (ev):

    -8.3069  -8.1738  -8.1585  -8.1354  -8.1185  -3.4958  -0.0466   3.0971
     3.2746  11.4121  11.4148  12.1456  12.7147  17.9199  19.1382  20.2152
    20.6959  23.7217  24.7226  24.7694

          k = 0.0000-1.5000 0.8333 (  1777 PWs)   bands (ev):

    -8.3038  -8.1755  -8.1614  -8.1339  -8.1191  -3.6484   0.0811   2.8280
     3.9148  10.5041  11.8194  12.0782  13.7329  16.4908  18.1847  20.7316
    21.6073  22.6031  23.6688  25.5154

          k = 0.2500 0.2500 0.2500 (  1799 PWs)   bands (ev):

    -8.2506  -8.1942  -8.1942  -8.1233  -8.1233  -5.4557   2.5166   6.0784
     6.0784   8.1350  11.3239  11.3239  12.7091  15.6436  15.8438  15.8438
    18.7163  22.7171  22.7171  25.4184

          k = 0.7500-0.2500 1.0833 (  1777 PWs)   bands (ev):

    -8.3028  -8.1706  -8.1645  -8.1399  -8.1138  -4.0849   0.5365   3.5439
     4.2994   9.0741  10.2330  13.0313  15.0833  17.0772  18.8324  20.1454
    20.5741  21.9490  22.7858  24.5746

          k = 0.2500-0.2500-0.2500 (  1799 PWs)   bands (ev):

    -8.2506  -8.1942  -8.1942  -8.1233  -8.1233  -5.4557   2.5166   6.0784
     6.0784   8.1350  11.3239  11.3239  12.7091  15.6436  15.8438  15.8438
    18.7163  22.7171  22.7171  25.4184

          k = 0.7500-0.7500 0.5833 (  1793 PWs)   bands (ev):

    -8.2675  -8.1898  -8.1874  -8.1262  -8.1195  -5.0790   1.6298   5.4755
     5.5487   8.6227  10.9483  11.9371  13.1333  15.5581  16.3491  17.1244
    19.8917  23.0665  23.7620  23.9069

          k = 0.2500-0.2500 0.2500 (  1799 PWs)   bands (ev):

    -8.2506  -8.1942  -8.1942  -8.1233  -8.1233  -5.4557   2.5166   6.0784
     6.0784   8.1350  11.3239  11.3239  12.7091  15.6436  15.8438  15.8438
    18.7163  22.7171  22.7171  25.4184

          k = 0.7500-0.7500 1.0833 (  1786 PWs)   bands (ev):

    -8.2410  -8.1976  -8.1946  -8.1258  -8.1222  -5.6550   3.3736   5.5185
     6.4456   8.8160  10.9709  10.9883  12.1652  15.1348  15.8571  16.5754
    18.3654  20.4182  22.4313  24.6788

          k =-0.2500 0.2500 0.2500 (  1799 PWs)   bands (ev):

    -8.2506  -8.1942  -8.1942  -8.1233  -8.1233  -5.4557   2.5166   6.0784
     6.0784   8.1350  11.3239  11.3239  12.7091  15.6436  15.8438  15.8438
    18.7163  22.7171  22.7171  25.4184

          k = 0.2500-0.2500 1.0833 (  1766 PWs)   bands (ev):

    -8.3077  -8.1694  -8.1619  -8.1383  -8.1156  -3.6535  -0.0002   2.8264
     4.4607   8.6112  11.3799  14.2306  14.6836  15.9587  17.6653  20.8069
    21.7408  22.8962  24.2578  25.1708

          k =-0.2500-0.2500-0.2500 (  1799 PWs)   bands (ev):

    -8.2506  -8.1942  -8.1942  -8.1233  -8.1233  -5.4557   2.5166   6.0784
     6.0784   8.1350  11.3239  11.3239  12.7091  15.6436  15.8438  15.8438
    18.7163  22.7171  22.7171  25.4184

          k = 0.2500-0.7500 0.5833 (  1778 PWs)   bands (ev):

    -8.2969  -8.1793  -8.1713  -8.1294  -8.1184  -3.9856   0.1272   3.4065
     4.7604   9.4686  11.1816  13.0574  13.9961  15.8468  18.4849  19.0454
    19.6918  22.4318  24.5614  25.3646

          k =-0.5000-0.5000-0.5000 (  1772 PWs)   bands (ev):

    -8.2882  -8.1857  -8.1857  -8.1190  -8.1190  -4.3343  -0.0703   5.6001
     5.6001   7.6634  11.3411  11.3411  14.3989  17.1864  18.8074  18.8074
    19.3203  20.1052  20.1052  26.4312

          k = 0.0000-1.0000 0.3333 (  1766 PWs)   bands (ev):

    -8.3108  -8.1684  -8.1580  -8.1397  -8.1151  -3.5125  -0.0992   3.2963
     3.4274   9.9304  10.1581  13.8870  14.1741  17.8866  19.1467  20.2416
    20.5959  23.9867  24.7272  24.9765

          k =-0.5000 0.5000 0.5000 (  1772 PWs)   bands (ev):

    -8.2882  -8.1857  -8.1857  -8.1190  -8.1190  -4.3343  -0.0703   5.6001
     5.6001   7.6634  11.3411  11.3411  14.3989  17.1864  18.8074  18.8074
    19.3203  20.1052  20.1052  26.4312

          k = 0.0000-0.0000 1.3333 (  1752 PWs)   bands (ev):

    -8.2978  -8.1672  -8.1672  -8.1437  -8.1125  -4.5594   1.2883   4.4665
     4.4665   8.1781   9.2897  14.8497  14.8497  15.4316  18.8881  19.8730
    22.2789  22.2789  22.6340  23.1564

          k = 0.0000-0.5000 0.0000 (  1812 PWs)   bands (ev):

    -8.2720  -8.1805  -8.1805  -8.1364  -8.1164  -5.2137   2.5892   5.0192
     5.0192   8.6081   9.9712  13.4034  13.4034  14.1922  18.0842  18.1897
    20.5689  20.5689  21.1433  25.3700

          k = 0.5000-1.0000 0.8333 (  1777 PWs)   bands (ev):

    -8.2724  -8.1828  -8.1810  -8.1344  -8.1169  -5.1226   2.2797   4.6274
     5.2395   9.2141  10.1176  12.4283  13.2648  15.0499  17.8343  18.1557
    19.8529  21.0968  23.0505  23.5180

          k = 0.0000 0.0000 0.5000 (  1812 PWs)   bands (ev):

    -8.2720  -8.1805  -8.1805  -8.1364  -8.1164  -5.2137   2.5892   5.0192
     5.0192   8.6081   9.9712  13.4034  13.4034  14.1922  18.0842  18.1897
    20.5689  20.5689  21.1433  25.3700

          k = 0.5000-0.5000 1.3333 (  1777 PWs)   bands (ev):

    -8.2873  -8.1848  -8.1842  -8.1205  -8.1199  -4.3703   0.1322   4.8954
     5.5779   8.3304  11.2324  11.5449  14.6751  16.5031  17.3872  18.5224
    19.6663  21.3252  21.8144  25.3189

          k = 0.0000 0.0000-0.5000 (  1812 PWs)   bands (ev):

    -8.2720  -8.1805  -8.1805  -8.1364  -8.1164  -5.2137   2.5892   5.0192
     5.0192   8.6081   9.9712  13.4034  13.4034  14.1922  18.0842  18.1897
    20.5689  20.5689  21.1433  25.3700

          k = 0.5000-0.5000 0.3333 (  1777 PWs)   bands (ev):

    -8.2873  -8.1848  -8.1842  -8.1205  -8.1199  -4.3703   0.1322   4.8954
     5.5779   8.3304  11.2324  11.5449  14.6751  16.5031  17.3872  18.5224
    19.6663  21.3252  21.8144  25.3189

          k =-0.7500-0.2500-0.7500 (  1776 PWs)   bands (ev):

    -8.3000  -8.1743  -8.1685  -8.1354  -8.1153  -4.0365   0.3275   3.4016
     4.6616   8.8419  11.4505  12.9515  13.7379  17.1744  18.9601  19.4369
    19.9523  21.0853  24.5876  25.6005

          k =-0.2500-0.7500 0.0833 (  1777 PWs)   bands (ev):

    -8.3028  -8.1706  -8.1645  -8.1399  -8.1138  -4.0849   0.5365   3.5439
     4.2994   9.0741  10.2330  13.0313  15.0833  17.0772  18.8324  20.1454
    20.5741  21.9490  22.7858  24.5746

          k = 0.7500 0.2500-0.7500 (  1776 PWs)   bands (ev):

    -8.3000  -8.1743  -8.1685  -8.1354  -8.1153  -4.0365   0.3275   3.4016
     4.6616   8.8419  11.4505  12.9515  13.7379  17.1744  18.9601  19.4369
    19.9523  21.0853  24.5876  25.6005

          k = 1.2500-0.2500 0.0833 (  1777 PWs)   bands (ev):

    -8.3028  -8.1706  -8.1645  -8.1399  -8.1138  -4.0849   0.5365   3.5439
     4.2994   9.0741  10.2330  13.0313  15.0833  17.0772  18.8324  20.1454
    20.5741  21.9490  22.7858  24.5746

          k =-0.2500 0.7500 0.7500 (  1776 PWs)   bands (ev):

    -8.3000  -8.1743  -8.1685  -8.1354  -8.1153  -4.0365   0.3275   3.4016
     4.6616   8.8419  11.4505  12.9515  13.7379  17.1744  18.9601  19.4369
    19.9523  21.0853  24.5876  25.6005

          k = 0.2500 0.2500 1.5833 (  1793 PWs)   bands (ev):

    -8.2675  -8.1898  -8.1874  -8.1262  -8.1195  -5.0790   1.6298   5.4755
     5.5487   8.6227  10.9483  11.9371  13.1333  15.5581  16.3491  17.1244
    19.8917  23.0665  23.7620  23.9069

          k = 0.7500 0.7500-0.2500 (  1776 PWs)   bands (ev):

    -8.3000  -8.1743  -8.1685  -8.1354  -8.1153  -4.0365   0.3275   3.4016
     4.6616   8.8419  11.4505  12.9515  13.7379  17.1744  18.9601  19.4369
    19.9523  21.0853  24.5876  25.6005

          k = 1.2500 0.2500 0.5833 (  1778 PWs)   bands (ev):

    -8.2969  -8.1793  -8.1713  -8.1294  -8.1184  -3.9856   0.1272   3.4065
     4.7604   9.4686  11.1816  13.0574  13.9961  15.8468  18.4849  19.0454
    19.6918  22.4318  24.5614  25.3646

          k = 0.7500-0.7500 0.2500 (  1776 PWs)   bands (ev):

    -8.3000  -8.1743  -8.1685  -8.1354  -8.1153  -4.0365   0.3275   3.4016
     4.6616   8.8419  11.4505  12.9515  13.7379  17.1744  18.9601  19.4369
    19.9523  21.0853  24.5876  25.6005

          k = 1.2500-1.2500 1.0833 (  1786 PWs)   bands (ev):

    -8.2410  -8.1976  -8.1946  -8.1258  -8.1222  -5.6550   3.3736   5.5185
     6.4456   8.8160  10.9709  10.9883  12.1652  15.1348  15.8571  16.5754
    18.3654  20.4182  22.4313  24.6788

          k =-0.7500 0.7500 0.2500 (  1776 PWs)   bands (ev):

    -8.3000  -8.1743  -8.1685  -8.1354  -8.1153  -4.0365   0.3275   3.4016
     4.6616   8.8419  11.4505  12.9515  13.7379  17.1744  18.9601  19.4369
    19.9523  21.0853  24.5876  25.6005

          k =-0.2500 0.2500 1.0833 (  1766 PWs)   bands (ev):

    -8.3077  -8.1694  -8.1619  -8.1383  -8.1156  -3.6535  -0.0002   2.8264
     4.4607   8.6112  11.3799  14.2306  14.6836  15.9587  17.6653  20.8069
    21.7408  22.8962  24.2578  25.1708

          k =-0.7500 0.2500-0.7500 (  1776 PWs)   bands (ev):

    -8.3000  -8.1743  -8.1685  -8.1354  -8.1153  -4.0365   0.3275   3.4016
     4.6616   8.8419  11.4505  12.9515  13.7379  17.1744  18.9601  19.4369
    19.9523  21.0853  24.5876  25.6005

          k =-0.2500-0.2500 0.0833 (  1786 PWs)   bands (ev):

    -8.2410  -8.1976  -8.1946  -8.1258  -8.1222  -5.6550   3.3736   5.5185
     6.4456   8.8160  10.9709  10.9883  12.1652  15.1348  15.8571  16.5754
    18.3654  20.4182  22.4313  24.6788

          k = 0.7500-0.2500-0.7500 (  1776 PWs)   bands (ev):

    -8.3000  -8.1743  -8.1685  -8.1354  -8.1153  -4.0365   0.3275   3.4016
     4.6616   8.8419  11.4505  12.9515  13.7379  17.1744  18.9601  19.4369
    19.9523  21.0853  24.5876  25.6005

          k = 1.2500-0.7500 0.0833 (  1766 PWs)   bands (ev):

    -8.3077  -8.1694  -8.1619  -8.1383  -8.1156  -3.6535  -0.0002   2.8264
     4.4607   8.6112  11.3799  14.2306  14.6836  15.9587  17.6653  20.8069
    21.7408  22.8962  24.2578  25.1708

          k = 0.7500 0.2500 0.7500 (  1776 PWs)   bands (ev):

    -8.3000  -8.1743  -8.1685  -8.1354  -8.1153  -4.0365   0.3275   3.4016
     4.6616   8.8419  11.4505  12.9515  13.7379  17.1744  18.9601  19.4369
    19.9523  21.0853  24.5876  25.6005

          k = 1.2500-0.2500 1.5833 (  1778 PWs)   bands (ev):

    -8.2969  -8.1793  -8.1713  -8.1294  -8.1184  -3.9856   0.1272   3.4065
     4.7604   9.4686  11.1816  13.0574  13.9961  15.8468  18.4849  19.0454
    19.6918  22.4318  24.5614  25.3646

          k =-0.7500-0.2500 0.7500 (  1776 PWs)   bands (ev):

    -8.3000  -8.1743  -8.1685  -8.1354  -8.1153  -4.0365   0.3275   3.4016
     4.6616   8.8419  11.4505  12.9515  13.7379  17.1744  18.9601  19.4369
    19.9523  21.0853  24.5876  25.6005

          k =-0.2500-0.7500 1.5833 (  1778 PWs)   bands (ev):

    -8.2969  -8.1793  -8.1713  -8.1294  -8.1184  -3.9856   0.1272   3.4065
     4.7604   9.4686  11.1816  13.0574  13.9961  15.8468  18.4849  19.0454
    19.6918  22.4318  24.5614  25.3646

          k =-0.7500 0.7500-0.2500 (  1776 PWs)   bands (ev):

    -8.3000  -8.1743  -8.1685  -8.1354  -8.1153  -4.0365   0.3275   3.4016
     4.6616   8.8419  11.4505  12.9515  13.7379  17.1744  18.9601  19.4369
    19.9523  21.0853  24.5876  25.6005

          k =-0.2500 0.2500 0.5833 (  1779 PWs)   bands (ev):

    -8.2857  -8.1822  -8.1781  -8.1308  -8.1164  -4.5736   0.8867   4.3735
     5.0416   9.0799  11.0345  12.6900  12.7559  16.6489  17.7750  18.7342
    20.0897  21.2819  23.3884  24.3477

          k =-0.7500-0.7500 0.2500 (  1776 PWs)   bands (ev):

    -8.3000  -8.1743  -8.1685  -8.1354  -8.1153  -4.0365   0.3275   3.4016
     4.6616   8.8419  11.4505  12.9515  13.7379  17.1744  18.9601  19.4369
    19.9523  21.0853  24.5876  25.6005

          k =-0.2500-1.2500 1.0833 (  1777 PWs)   bands (ev):

    -8.3028  -8.1706  -8.1645  -8.1399  -8.1138  -4.0849   0.5365   3.5439
     4.2994   9.0741  10.2330  13.0313  15.0833  17.0772  18.8324  20.1454
    20.5741  21.9490  22.7858  24.5746

          k = 0.7500-0.7500-0.2500 (  1776 PWs)   bands (ev):

    -8.3000  -8.1743  -8.1685  -8.1354  -8.1153  -4.0365   0.3275   3.4016
     4.6616   8.8419  11.4505  12.9515  13.7379  17.1744  18.9601  19.4369
    19.9523  21.0853  24.5876  25.6005

          k = 1.2500-1.2500 0.5833 (  1793 PWs)   bands (ev):

    -8.2675  -8.1898  -8.1874  -8.1262  -8.1195  -5.0790   1.6298   5.4755
     5.5487   8.6227  10.9483  11.9371  13.1333  15.5581  16.3491  17.1244
    19.8917  23.0665  23.7620  23.9069

          k =-0.5000-0.0000-0.5000 (  1780 PWs)   bands (ev):

    -8.2846  -8.1818  -8.1792  -8.1255  -8.1230  -4.4708   0.9808   3.2631
     5.5139   9.4294  12.3513  12.4186  12.5645  15.1788  17.1417  19.5429
    20.1968  21.2839  24.4493  25.5045

          k = 0.0000-0.5000 0.3333 (  1791 PWs)   bands (ev):

    -8.2759  -8.1849  -8.1816  -8.1299  -8.1191  -4.8618   1.6388   3.8999
     5.5746   9.8540  10.7291  12.0089  12.9117  15.1986  17.7627  18.5275
    20.1563  21.0886  22.7581  25.3550

          k = 0.5000 0.0000-0.5000 (  1780 PWs)   bands (ev):

    -8.2846  -8.1818  -8.1792  -8.1255  -8.1230  -4.4708   0.9808   3.2631
     5.5139   9.4294  12.3513  12.4186  12.5645  15.1788  17.1417  19.5429
    20.1968  21.2839  24.4493  25.5045

          k = 1.0000-0.5000 0.3333 (  1780 PWs)   bands (ev):

    -8.2955  -8.1789  -8.1698  -8.1294  -8.1210  -4.0251   0.4397   2.8768
     4.8241   9.6741  12.1005  12.3017  14.4097  15.3540  16.5298  20.5769
    20.8128  22.4564  24.3112  25.1237

          k = 0.0000 0.5000 0.5000 (  1780 PWs)   bands (ev):

    -8.2846  -8.1818  -8.1792  -8.1255  -8.1230  -4.4708   0.9808   3.2631
     5.5139   9.4294  12.3513  12.4186  12.5645  15.1788  17.1417  19.5429
    20.1968  21.2839  24.4493  25.5045

          k = 0.5000-0.0000 1.3333 (  1780 PWs)   bands (ev):

    -8.2955  -8.1789  -8.1698  -8.1294  -8.1210  -4.0251   0.4397   2.8768
     4.8241   9.6741  12.1005  12.3017  14.4097  15.3540  16.5298  20.5769
    20.8128  22.4564  24.3112  25.1237

          k = 0.5000 0.5000 0.0000 (  1780 PWs)   bands (ev):

    -8.2846  -8.1818  -8.1792  -8.1255  -8.1230  -4.4708   0.9808   3.2631
     5.5139   9.4294  12.3513  12.4186  12.5645  15.1788  17.1417  19.5429
    20.1968  21.2839  24.4493  25.5045

          k = 1.0000-0.0000 0.8333 (  1774 PWs)   bands (ev):

    -8.3178  -8.1584  -8.1563  -8.1467  -8.1106  -3.5454  -0.1943   3.7403
     3.7838   8.5869   8.8329  15.9404  16.0425  17.8232  19.3015  20.2970
    20.4285  22.4748  23.5897  25.2422

          k = 0.5000-0.5000 0.0000 (  1780 PWs)   bands (ev):

    -8.2846  -8.1818  -8.1792  -8.1255  -8.1230  -4.4708   0.9808   3.2631
     5.5139   9.4294  12.3513  12.4186  12.5645  15.1788  17.1417  19.5429
    20.1968  21.2839  24.4493  25.5045

          k = 1.0000-1.0000 0.8333 (  1804 PWs)   bands (ev):

    -8.2166  -8.2028  -8.2028  -8.1252  -8.1229  -6.0577   5.4735   6.4361
     6.4361   8.5219  10.0504  10.9215  10.9215  14.8683  15.6477  17.1460
    18.5970  18.5970  19.2504  22.3055

          k =-0.5000 0.5000 0.0000 (  1780 PWs)   bands (ev):

    -8.2846  -8.1818  -8.1792  -8.1255  -8.1230  -4.4708   0.9808   3.2631
     5.5139   9.4294  12.3513  12.4186  12.5645  15.1788  17.1417  19.5429
    20.1968  21.2839  24.4493  25.5045

          k = 0.0000-0.0000 0.8333 (  1756 PWs)   bands (ev):

    -8.3150  -8.1573  -8.1573  -8.1494  -8.1098  -3.8943   0.2284   4.1192
     4.1192   8.0046   8.6135  16.2430  16.2430  16.9251  19.8486  20.4849
    21.2717  21.2717  23.4525  24.4677

          k = 0.0000 0.0000-1.0000 (  1772 PWs)   bands (ev):

    -8.3210  -8.1537  -8.1537  -8.1515  -8.1088  -3.5615  -0.2377   4.0011
     4.0011   8.0394   8.2790  17.0147  17.0147  17.7918  20.1362  20.3420
    20.3420  20.5027  22.5458  26.4552

          k = 0.5000-0.5000-0.1667 (  1778 PWs)   bands (ev):

    -8.2855  -8.1829  -8.1810  -8.1237  -8.1220  -4.4385   0.6312   3.8198
     5.5348   9.1764  11.4239  12.0565  13.8948  15.8757  16.7760  18.6091
    20.2434  22.3691  23.9628  24.2500

          k = 0.5000-1.0000 0.0000 (  1768 PWs)   bands (ev):

    -8.3069  -8.1738  -8.1585  -8.1354  -8.1185  -3.4958  -0.0466   3.0971
     3.2746  11.4121  11.4148  12.1456  12.7147  17.9199  19.1382  20.2152
    20.6959  23.7217  24.7226  24.7694

          k = 1.0000-1.5000 0.8333 (  1777 PWs)   bands (ev):

    -8.2724  -8.1828  -8.1810  -8.1344  -8.1169  -5.1226   2.2797   4.6274
     5.2395   9.2141  10.1176  12.4283  13.2648  15.0499  17.8343  18.1557
    19.8529  21.0968  23.0505  23.5180

          k =-1.0000 0.0000-0.5000 (  1768 PWs)   bands (ev):

    -8.3069  -8.1738  -8.1585  -8.1354  -8.1185  -3.4958  -0.0466   3.0971
     3.2746  11.4121  11.4148  12.1456  12.7147  17.9199  19.1382  20.2152
    20.6959  23.7217  24.7226  24.7694

          k =-0.5000-0.5000 0.3333 (  1777 PWs)   bands (ev):

    -8.2873  -8.1848  -8.1842  -8.1205  -8.1199  -4.3703   0.1322   4.8954
     5.5779   8.3304  11.2324  11.5449  14.6751  16.5031  17.3872  18.5224
    19.6663  21.3252  21.8144  25.3189

     highest occupied, lowest unoccupied level (ev):     6.7912    7.2369

     Writing output data file GaAs.save

                                                                                

     bravais-lattice index     =            2
     lattice parameter (alat)  =      10.6031  a.u.
     unit-cell volume          =     298.0132 (a.u.)^3
     number of atoms/cell      =            2
     number of atomic types    =            2
     kinetic-energy cut-off    =      50.0000  Ry
     charge density cut-off    =     200.0000  Ry
     convergence threshold     =      1.0E-14
     beta                      =       0.7000
     number of iterations used =            4
     Exchange-correlation      = LDA ( 1  1  0  0 0 0)


     celldm(1)=   10.60307  celldm(2)=    0.00000  celldm(3)=    0.00000
     celldm(4)=    0.00000  celldm(5)=    0.00000  celldm(6)=    0.00000

     crystal axes: (cart. coord. in units of alat)
               a(1) = ( -0.5000  0.0000  0.5000 )  
               a(2) = (  0.0000  0.5000  0.5000 )  
               a(3) = ( -0.5000  0.5000  0.0000 )  

     reciprocal axes: (cart. coord. in units 2 pi/alat)
               b(1) = ( -1.0000 -1.0000  1.0000 )  
               b(2) = (  1.0000  1.0000  1.0000 )  
               b(3) = ( -1.0000  1.0000 -1.0000 )  


     Atoms inside the unit cell: 

     Cartesian axes

     site n.  atom      mass           positions (alat units)
        1     Ga  69.7230   tau(    1) = (    0.00000    0.00000    0.00000  )
        2     As  74.9220   tau(    2) = (   -0.75000    0.75000    0.75000  )

     Computing dynamical matrix for 
                    q = (   0.5000000  -0.5000000   0.8333333 )
 
      2 Sym.Ops. (no q -> -q+G )


     G cutoff =  569.5527  (    209 G-vectors)     FFT grid: ( 36, 36, 36)
     number of k points=    80
                       cart. coord. in units 2pi/alat
        k(    1) = (   0.0000000   0.0000000   0.0000000), wk =   0.0312500
        k(    2) = (   0.5000000  -0.5000000   0.8333333), wk =   0.0000000
        k(    3) = (  -0.2500000   0.2500000  -0.2500000), wk =   0.0312500
        k(    4) = (   0.2500000  -0.2500000   0.5833333), wk =   0.0000000
        k(    5) = (   0.5000000  -0.5000000   0.5000000), wk =   0.0312500
        k(    6) = (   1.0000000  -1.0000000   1.3333333), wk =   0.0000000
        k(    7) = (   0.0000000   0.5000000   0.0000000), wk =   0.0625000
        k(    8) = (   0.5000000  -0.0000000   0.8333333), wk =   0.0000000
        k(    9) = (   0.7500000  -0.2500000   0.7500000), wk =   0.0625000
        k(   10) = (   1.2500000  -0.7500000   1.5833333), wk =   0.0000000
        k(   11) = (   0.5000000   0.0000000   0.5000000), wk =   0.0625000
        k(   12) = (   1.0000000  -0.5000000   1.3333333), wk =   0.0000000
        k(   13) = (   0.0000000  -1.0000000   0.0000000), wk =   0.0625000
        k(   14) = (   0.5000000  -1.5000000   0.8333333), wk =   0.0000000
        k(   15) = (  -0.5000000  -1.0000000   0.0000000), wk =   0.0625000
        k(   16) = (   0.0000000  -1.5000000   0.8333333), wk =   0.0000000
        k(   17) = (   0.2500000   0.2500000   0.2500000), wk =   0.0625000
        k(   18) = (   0.7500000  -0.2500000   1.0833333), wk =   0.0000000
        k(   19) = (   0.2500000  -0.2500000  -0.2500000), wk =   0.0312500
        k(   20) = (   0.7500000  -0.7500000   0.5833333), wk =   0.0000000
        k(   21) = (   0.2500000  -0.2500000   0.2500000), wk =   0.0312500
        k(   22) = (   0.7500000  -0.7500000   1.0833333), wk =   0.0000000
        k(   23) = (  -0.2500000   0.2500000   0.2500000), wk =   0.0312500
        k(   24) = (   0.2500000  -0.2500000   1.0833333), wk =   0.0000000
        k(   25) = (  -0.2500000  -0.2500000  -0.2500000), wk =   0.0625000
        k(   26) = (   0.2500000  -0.7500000   0.5833333), wk =   0.0000000
        k(   27) = (  -0.5000000  -0.5000000  -0.5000000), wk =   0.0625000
        k(   28) = (   0.0000000  -1.0000000   0.3333333), wk =   0.0000000
        k(   29) = (  -0.5000000   0.5000000   0.5000000), wk =   0.0312500
        k(   30) = (   0.0000000  -0.0000000   1.3333333), wk =   0.0000000
        k(   31) = (   0.0000000  -0.5000000   0.0000000), wk =   0.0625000
        k(   32) = (   0.5000000  -1.0000000   0.8333333), wk =   0.0000000
        k(   33) = (   0.0000000   0.0000000   0.5000000), wk =   0.0312500
        k(   34) = (   0.5000000  -0.5000000   1.3333333), wk =   0.0000000
        k(   35) = (   0.0000000   0.0000000  -0.5000000), wk =   0.0312500
        k(   36) = (   0.5000000  -0.5000000   0.3333333), wk =   0.0000000
        k(   37) = (  -0.7500000  -0.2500000  -0.7500000), wk =   0.0625000
        k(   38) = (  -0.2500000  -0.7500000   0.0833333), wk =   0.0000000
        k(   39) = (   0.7500000   0.2500000  -0.7500000), wk =   0.0625000
        k(   40) = (   1.2500000  -0.2500000   0.0833333), wk =   0.0000000
        k(   41) = (  -0.2500000   0.7500000   0.7500000), wk =   0.0625000
        k(   42) = (   0.2500000   0.2500000   1.5833333), wk =   0.0000000
        k(   43) = (   0.7500000   0.7500000  -0.2500000), wk =   0.0625000
        k(   44) = (   1.2500000   0.2500000   0.5833333), wk =   0.0000000
        k(   45) = (   0.7500000  -0.7500000   0.2500000), wk =   0.0312500
        k(   46) = (   1.2500000  -1.2500000   1.0833333), wk =   0.0000000
        k(   47) = (  -0.7500000   0.7500000   0.2500000), wk =   0.0312500
        k(   48) = (  -0.2500000   0.2500000   1.0833333), wk =   0.0000000
        k(   49) = (  -0.7500000   0.2500000  -0.7500000), wk =   0.0625000
        k(   50) = (  -0.2500000  -0.2500000   0.0833333), wk =   0.0000000
        k(   51) = (   0.7500000  -0.2500000  -0.7500000), wk =   0.0625000
        k(   52) = (   1.2500000  -0.7500000   0.0833333), wk =   0.0000000
        k(   53) = (   0.7500000   0.2500000   0.7500000), wk =   0.0625000
        k(   54) = (   1.2500000  -0.2500000   1.5833333), wk =   0.0000000
        k(   55) = (  -0.7500000  -0.2500000   0.7500000), wk =   0.0625000
        k(   56) = (  -0.2500000  -0.7500000   1.5833333), wk =   0.0000000
        k(   57) = (  -0.7500000   0.7500000  -0.2500000), wk =   0.0312500
        k(   58) = (  -0.2500000   0.2500000   0.5833333), wk =   0.0000000
        k(   59) = (  -0.7500000  -0.7500000   0.2500000), wk =   0.0625000
        k(   60) = (  -0.2500000  -1.2500000   1.0833333), wk =   0.0000000
        k(   61) = (   0.7500000  -0.7500000  -0.2500000), wk =   0.0312500
        k(   62) = (   1.2500000  -1.2500000   0.5833333), wk =   0.0000000
        k(   63) = (  -0.5000000  -0.0000000  -0.5000000), wk =   0.0625000
        k(   64) = (   0.0000000  -0.5000000   0.3333333), wk =   0.0000000
        k(   65) = (   0.5000000   0.0000000  -0.5000000), wk =   0.0625000
        k(   66) = (   1.0000000  -0.5000000   0.3333333), wk =   0.0000000
        k(   67) = (   0.0000000   0.5000000   0.5000000), wk =   0.0625000
        k(   68) = (   0.5000000  -0.0000000   1.3333333), wk =   0.0000000
        k(   69) = (   0.5000000   0.5000000   0.0000000), wk =   0.0625000
        k(   70) = (   1.0000000  -0.0000000   0.8333333), wk =   0.0000000
        k(   71) = (   0.5000000  -0.5000000   0.0000000), wk =   0.0312500
        k(   72) = (   1.0000000  -1.0000000   0.8333333), wk =   0.0000000
        k(   73) = (  -0.5000000   0.5000000   0.0000000), wk =   0.0312500
        k(   74) = (   0.0000000  -0.0000000   0.8333333), wk =   0.0000000
        k(   75) = (   0.0000000   0.0000000  -1.0000000), wk =   0.0312500
        k(   76) = (   0.5000000  -0.5000000  -0.1666667), wk =   0.0000000
        k(   77) = (   0.5000000  -1.0000000   0.0000000), wk =   0.0625000
        k(   78) = (   1.0000000  -1.5000000   0.8333333), wk =   0.0000000
        k(   79) = (  -1.0000000   0.0000000  -0.5000000), wk =   0.0625000
        k(   80) = (  -0.5000000  -0.5000000   0.3333333), wk =   0.0000000

     PseudoPot. # 1 for Ga read from file:
     ../PP_DIR/Ga.pz-dn-rrkjus_psl.0.2.UPF
     MD5 check sum: 337958ae198bc3768054a43796a587a1
     Pseudo is Ultrasoft + core correction, Zval = 13.0
     Generated using "atomic" code by A. Dal Corso  v.5.0.2 svn rev. 9415
     Using radial grid of 1205 points,  6 beta functions with: 
                l(1) =   0
                l(2) =   0
                l(3) =   1
                l(4) =   1
                l(5) =   2
                l(6) =   2
     Q(r) pseudized with 0 coefficients 


     PseudoPot. # 2 for As read from file:
     ../PP_DIR/As.pz-n-rrkjus_psl.0.2.UPF
     MD5 check sum: f80104272e9b817acfe428865afbdb7e
     Pseudo is Ultrasoft + core correction, Zval =  5.0
     Generated using "atomic" code by A. Dal Corso  v.5.0.2 svn rev. 9415
     Using radial grid of 1209 points,  4 beta functions with: 
                l(1) =   0
                l(2) =   0
                l(3) =   1
                l(4) =   1
     Q(r) pseudized with 0 coefficients 


     Mode symmetry, C_s (m)     point group:


     Atomic displacements:
     There are   6 irreducible representations

     Representation     1      1 modes -A'  To be done

     Representation     2      1 modes -A'  To be done

     Representation     3      1 modes -A'  To be done

     Representation     4      1 modes -A'  To be done

     Representation     5      1 modes -A''  To be done

     Representation     6      1 modes -A''  To be done



     Alpha used in Ewald sum =   2.0000
     PHONON       :  3m 5.57s CPU     1m 1.67s WALL



     Representation #  1 mode #   1

     Self-consistent Calculation

      iter #   1 total cpu time :    69.5 secs   av.it.:   7.4
      thresh= 1.000E-02 alpha_mix =  0.700 |ddv_scf|^2 =  1.476E-04

      iter #   2 total cpu time :    77.4 secs   av.it.:  10.6
      thresh= 1.215E-03 alpha_mix =  0.700 |ddv_scf|^2 =  5.197E-04

      iter #   3 total cpu time :    85.8 secs   av.it.:   9.0
      thresh= 2.280E-03 alpha_mix =  0.700 |ddv_scf|^2 =  2.660E-06

      iter #   4 total cpu time :    95.0 secs   av.it.:  10.6
      thresh= 1.631E-04 alpha_mix =  0.700 |ddv_scf|^2 =  2.559E-07

      iter #   5 total cpu time :   103.0 secs   av.it.:  11.0
      thresh= 5.058E-05 alpha_mix =  0.700 |ddv_scf|^2 =  2.559E-07

      iter #   6 total cpu time :   111.5 secs   av.it.:  10.4
      thresh= 5.058E-05 alpha_mix =  0.700 |ddv_scf|^2 =  3.833E-09

      iter #   7 total cpu time :   120.0 secs   av.it.:  10.8
      thresh= 6.191E-06 alpha_mix =  0.700 |ddv_scf|^2 =  4.901E-10

      iter #   8 total cpu time :   128.0 secs   av.it.:  10.9
      thresh= 2.214E-06 alpha_mix =  0.700 |ddv_scf|^2 =  1.652E-10

      iter #   9 total cpu time :   135.5 secs   av.it.:   9.9
      thresh= 1.285E-06 alpha_mix =  0.700 |ddv_scf|^2 =  3.442E-11

      iter #  10 total cpu time :   145.0 secs   av.it.:  10.3
      thresh= 5.867E-07 alpha_mix =  0.700 |ddv_scf|^2 =  1.368E-12

      iter #  11 total cpu time :   153.7 secs   av.it.:  10.7
      thresh= 1.170E-07 alpha_mix =  0.700 |ddv_scf|^2 =  3.695E-13

      iter #  12 total cpu time :   162.7 secs   av.it.:  10.9
      thresh= 6.079E-08 alpha_mix =  0.700 |ddv_scf|^2 =  2.876E-13

      iter #  13 total cpu time :   171.9 secs   av.it.:  10.4
      thresh= 5.363E-08 alpha_mix =  0.700 |ddv_scf|^2 =  1.273E-14

      iter #  14 total cpu time :   180.8 secs   av.it.:  10.8
      thresh= 1.128E-08 alpha_mix =  0.700 |ddv_scf|^2 =  1.317E-15

     End of self-consistent calculation

     Convergence has been achieved 


     Representation #  2 mode #   2

     Self-consistent Calculation

      iter #   1 total cpu time :   187.3 secs   av.it.:   5.2
      thresh= 1.000E-02 alpha_mix =  0.700 |ddv_scf|^2 =  1.462E-05

      iter #   2 total cpu time :   195.6 secs   av.it.:  10.2
      thresh= 3.824E-04 alpha_mix =  0.700 |ddv_scf|^2 =  5.696E-05

      iter #   3 total cpu time :   203.9 secs   av.it.:   9.1
      thresh= 7.547E-04 alpha_mix =  0.700 |ddv_scf|^2 =  6.469E-08

      iter #   4 total cpu time :   213.4 secs   av.it.:  10.8
      thresh= 2.543E-05 alpha_mix =  0.700 |ddv_scf|^2 =  2.106E-08

      iter #   5 total cpu time :   222.3 secs   av.it.:  10.5
      thresh= 1.451E-05 alpha_mix =  0.700 |ddv_scf|^2 =  2.814E-09

      iter #   6 total cpu time :   230.5 secs   av.it.:  10.6
      thresh= 5.304E-06 alpha_mix =  0.700 |ddv_scf|^2 =  7.980E-11

      iter #   7 total cpu time :   238.8 secs   av.it.:  10.2
      thresh= 8.933E-07 alpha_mix =  0.700 |ddv_scf|^2 =  1.156E-11

      iter #   8 total cpu time :   246.7 secs   av.it.:  10.7
      thresh= 3.400E-07 alpha_mix =  0.700 |ddv_scf|^2 =  3.646E-12

      iter #   9 total cpu time :   254.9 secs   av.it.:  10.4
      thresh= 1.909E-07 alpha_mix =  0.700 |ddv_scf|^2 =  7.492E-13

      iter #  10 total cpu time :   263.0 secs   av.it.:  10.1
      thresh= 8.656E-08 alpha_mix =  0.700 |ddv_scf|^2 =  1.236E-13

      iter #  11 total cpu time :   271.6 secs   av.it.:  10.5
      thresh= 3.515E-08 alpha_mix =  0.700 |ddv_scf|^2 =  1.513E-14

      iter #  12 total cpu time :   279.3 secs   av.it.:  10.5
      thresh= 1.230E-08 alpha_mix =  0.700 |ddv_scf|^2 =  6.522E-16

     End of self-consistent calculation

     Convergence has been achieved 


     Representation #  3 mode #   3

     Self-consistent Calculation

      iter #   1 total cpu time :   287.8 secs   av.it.:   7.0
      thresh= 1.000E-02 alpha_mix =  0.700 |ddv_scf|^2 =  3.278E-05

      iter #   2 total cpu time :   296.7 secs   av.it.:  10.8
      thresh= 5.725E-04 alpha_mix =  0.700 |ddv_scf|^2 =  6.855E-05

      iter #   3 total cpu time :   305.1 secs   av.it.:   9.2
      thresh= 8.279E-04 alpha_mix =  0.700 |ddv_scf|^2 =  2.966E-06

      iter #   4 total cpu time :   312.7 secs   av.it.:   9.9
      thresh= 1.722E-04 alpha_mix =  0.700 |ddv_scf|^2 =  1.065E-07

      iter #   5 total cpu time :   322.3 secs   av.it.:  11.0
      thresh= 3.263E-05 alpha_mix =  0.700 |ddv_scf|^2 =  6.684E-08

      iter #   6 total cpu time :   358.3 secs   av.it.:  10.6
      thresh= 2.585E-05 alpha_mix =  0.700 |ddv_scf|^2 =  9.136E-09

      iter #   7 total cpu time :   374.4 secs   av.it.:  10.7
      thresh= 9.558E-06 alpha_mix =  0.700 |ddv_scf|^2 =  4.358E-10

      iter #   8 total cpu time :   385.5 secs   av.it.:  10.8
      thresh= 2.088E-06 alpha_mix =  0.700 |ddv_scf|^2 =  7.912E-11

      iter #   9 total cpu time :   394.7 secs   av.it.:  10.1
      thresh= 8.895E-07 alpha_mix =  0.700 |ddv_scf|^2 =  5.405E-11

      iter #  10 total cpu time :   403.5 secs   av.it.:  10.4
      thresh= 7.352E-07 alpha_mix =  0.700 |ddv_scf|^2 =  3.340E-12

      iter #  11 total cpu time :   411.5 secs   av.it.:  10.8
      thresh= 1.828E-07 alpha_mix =  0.700 |ddv_scf|^2 =  7.586E-13

      iter #  12 total cpu time :   420.4 secs   av.it.:  10.9
      thresh= 8.710E-08 alpha_mix =  0.700 |ddv_scf|^2 =  3.833E-13

      iter #  13 total cpu time :   428.6 secs   av.it.:  10.4
      thresh= 6.191E-08 alpha_mix =  0.700 |ddv_scf|^2 =  2.269E-14

      iter #  14 total cpu time :   437.2 secs   av.it.:  10.8
      thresh= 1.506E-08 alpha_mix =  0.700 |ddv_scf|^2 =  4.288E-15

     End of self-consistent calculation

     Convergence has been achieved 


     Representation #  4 mode #   4

     Self-consistent Calculation

      iter #   1 total cpu time :   444.3 secs   av.it.:   5.2
      thresh= 1.000E-02 alpha_mix =  0.700 |ddv_scf|^2 =  4.052E-06

      iter #   2 total cpu time :   453.2 secs   av.it.:  10.6
      thresh= 2.013E-04 alpha_mix =  0.700 |ddv_scf|^2 =  1.377E-05

      iter #   3 total cpu time :   462.4 secs   av.it.:   9.3
      thresh= 3.711E-04 alpha_mix =  0.700 |ddv_scf|^2 =  1.237E-07

      iter #   4 total cpu time :   470.6 secs   av.it.:  10.4
      thresh= 3.517E-05 alpha_mix =  0.700 |ddv_scf|^2 =  6.587E-09

      iter #   5 total cpu time :   480.1 secs   av.it.:  10.9
      thresh= 8.116E-06 alpha_mix =  0.700 |ddv_scf|^2 =  5.599E-09

      iter #   6 total cpu time :   488.2 secs   av.it.:  10.5
      thresh= 7.483E-06 alpha_mix =  0.700 |ddv_scf|^2 =  1.159E-10

      iter #   7 total cpu time :   497.0 secs   av.it.:  10.3
      thresh= 1.077E-06 alpha_mix =  0.700 |ddv_scf|^2 =  9.118E-12

      iter #   8 total cpu time :   505.2 secs   av.it.:  10.8
      thresh= 3.020E-07 alpha_mix =  0.700 |ddv_scf|^2 =  2.078E-12

      iter #   9 total cpu time :   514.3 secs   av.it.:  10.3
      thresh= 1.442E-07 alpha_mix =  0.700 |ddv_scf|^2 =  9.835E-13

      iter #  10 total cpu time :   522.8 secs   av.it.:   9.5
      thresh= 9.917E-08 alpha_mix =  0.700 |ddv_scf|^2 =  6.645E-14

      iter #  11 total cpu time :   531.4 secs   av.it.:  10.9
      thresh= 2.578E-08 alpha_mix =  0.700 |ddv_scf|^2 =  3.980E-14

      iter #  12 total cpu time :   540.1 secs   av.it.:  10.4
      thresh= 1.995E-08 alpha_mix =  0.700 |ddv_scf|^2 =  2.302E-15

     End of self-consistent calculation

     Convergence has been achieved 


     Representation #  5 mode #   5

     Self-consistent Calculation

      iter #   1 total cpu time :   546.8 secs   av.it.:   4.9
      thresh= 1.000E-02 alpha_mix =  0.700 |ddv_scf|^2 =  1.739E-07

      iter #   2 total cpu time :   555.9 secs   av.it.:  10.4
      thresh= 4.171E-05 alpha_mix =  0.700 |ddv_scf|^2 =  1.237E-08

      iter #   3 total cpu time :   564.5 secs   av.it.:  10.5
      thresh= 1.112E-05 alpha_mix =  0.700 |ddv_scf|^2 =  4.373E-10

      iter #   4 total cpu time :   572.6 secs   av.it.:   9.8
      thresh= 2.091E-06 alpha_mix =  0.700 |ddv_scf|^2 =  1.405E-12

      iter #   5 total cpu time :   581.2 secs   av.it.:  10.7
      thresh= 1.185E-07 alpha_mix =  0.700 |ddv_scf|^2 =  3.060E-14

      iter #   6 total cpu time :   594.8 secs   av.it.:  10.5
      thresh= 1.749E-08 alpha_mix =  0.700 |ddv_scf|^2 =  5.290E-16

     End of self-consistent calculation

     Convergence has been achieved 


     Representation #  6 mode #   6

     Self-consistent Calculation

      iter #   1 total cpu time :   603.0 secs   av.it.:   6.9
      thresh= 1.000E-02 alpha_mix =  0.700 |ddv_scf|^2 =  1.190E-05

      iter #   2 total cpu time :   611.0 secs   av.it.:  10.4
      thresh= 3.449E-04 alpha_mix =  0.700 |ddv_scf|^2 =  7.197E-07

      iter #   3 total cpu time :   619.0 secs   av.it.:  10.4
      thresh= 8.483E-05 alpha_mix =  0.700 |ddv_scf|^2 =  1.531E-08

      iter #   4 total cpu time :   628.0 secs   av.it.:  10.4
      thresh= 1.237E-05 alpha_mix =  0.700 |ddv_scf|^2 =  5.578E-10

      iter #   5 total cpu time :   637.3 secs   av.it.:  10.6
      thresh= 2.362E-06 alpha_mix =  0.700 |ddv_scf|^2 =  1.659E-12

      iter #   6 total cpu time :   646.7 secs   av.it.:  11.0
      thresh= 1.288E-07 alpha_mix =  0.700 |ddv_scf|^2 =  1.741E-14

      iter #   7 total cpu time :   655.9 secs   av.it.:  10.5
      thresh= 1.320E-08 alpha_mix =  0.700 |ddv_scf|^2 =  8.613E-16

     End of self-consistent calculation

     Convergence has been achieved 
 
     Number of q in the star =   12
     List of q in the star:
          1   0.500000000  -0.500000000   0.833333333
          2  -0.500000000  -0.500000000  -0.833333333
          3   0.500000000   0.500000000  -0.833333333
          4  -0.500000000   0.833333333   0.500000000
          5   0.500000000   0.833333333  -0.500000000
          6  -0.500000000  -0.833333333  -0.500000000
          7   0.500000000  -0.833333333   0.500000000
          8   0.833333333   0.500000000  -0.500000000
          9   0.833333333  -0.500000000   0.500000000
         10  -0.833333333  -0.500000000  -0.500000000
         11  -0.833333333   0.500000000   0.500000000
         12  -0.500000000   0.500000000   0.833333333
     In addition there is the -q list: 
          1  -0.500000000   0.500000000  -0.833333333
          2   0.500000000   0.500000000   0.833333333
          3  -0.500000000  -0.500000000   0.833333333
          4   0.500000000  -0.833333333  -0.500000000
          5  -0.500000000  -0.833333333   0.500000000
          6   0.500000000   0.833333333   0.500000000
          7  -0.500000000   0.833333333  -0.500000000
          8  -0.833333333  -0.500000000   0.500000000
          9  -0.833333333   0.500000000  -0.500000000
         10   0.833333333   0.500000000   0.500000000
         11   0.833333333  -0.500000000  -0.500000000
         12   0.500000000  -0.500000000  -0.833333333

     Diagonalizing the dynamical matrix

     q = (    0.500000000  -0.500000000   0.833333333 ) 

 **************************************************************************
     freq (    1) =       2.171002 [THz] =      72.416817 [cm-1]
     freq (    2) =       2.799092 [THz] =      93.367668 [cm-1]
     freq (    3) =       5.159555 [THz] =     172.104237 [cm-1]
     freq (    4) =       7.131976 [THz] =     237.897106 [cm-1]
     freq (    5) =       7.743645 [THz] =     258.300186 [cm-1]
     freq (    6) =       8.016288 [THz] =     267.394585 [cm-1]
 **************************************************************************

     Mode symmetry, C_s (m)     point group:

     freq (  1 -  1) =         72.4  [cm-1]   --> A''                
     freq (  2 -  2) =         93.4  [cm-1]   --> A'                 
     freq (  3 -  3) =        172.1  [cm-1]   --> A'                 
     freq (  4 -  4) =        237.9  [cm-1]   --> A'                 
     freq (  5 -  5) =        258.3  [cm-1]   --> A''                
     freq (  6 -  6) =        267.4  [cm-1]   --> A'                 
 
     init_run     :      1.43s CPU      0.46s WALL (       1 calls)
     electrons    :    166.36s CPU     46.59s WALL (       1 calls)

     Called by init_run:
     wfcinit      :      0.25s CPU      0.09s WALL (       1 calls)
     potinit      :      0.22s CPU      0.06s WALL (       1 calls)

     Called by electrons:
     c_bands      :    166.31s CPU     46.58s WALL (       1 calls)
     v_of_rho     :      0.04s CPU      0.01s WALL (       2 calls)
     newd         :      0.06s CPU      0.02s WALL (       2 calls)

     Called by c_bands:
     init_us_2    :      1.96s CPU      0.53s WALL (    3080 calls)
     cegterg      :    154.30s CPU     42.77s WALL (      99 calls)

     Called by sum_band:

     Called by *egterg:
     h_psi        :   1356.92s CPU    385.84s WALL (   37909 calls)
     s_psi        :     25.98s CPU      8.50s WALL (   76722 calls)
     g_psi        :      0.47s CPU      0.04s WALL (    1517 calls)
     cdiaghg      :     40.88s CPU     11.44s WALL (    1597 calls)

     Called by h_psi:
     h_psi:pot    :   1353.34s CPU    384.58s WALL (   37909 calls)
     h_psi:calbec :    215.15s CPU     63.85s WALL (   37909 calls)
     vloc_psi     :   1116.48s CPU    313.17s WALL (   37909 calls)
     add_vuspsi   :     15.98s CPU      5.31s WALL (   37909 calls)

     General routines
     calbec       :    261.67s CPU     77.87s WALL (   81082 calls)
     fft          :      2.45s CPU      0.71s WALL (     451 calls)
     ffts         :      0.77s CPU      0.22s WALL (     282 calls)
     fftw         :   1356.54s CPU    394.77s WALL (  631378 calls)
     davcio       :      9.38s CPU      2.97s WALL (   14017 calls)
 
     Parallel routines
     fft_scatt_xy :     17.83s CPU     15.84s WALL (  632111 calls)
     fft_scatt_yz :   1130.95s CPU    284.95s WALL (  632111 calls)
 
     PHONON       : 33m51.60s CPU    10m58.24s WALL

     INITIALIZATION: 
     phq_setup    :      0.02s CPU      0.05s WALL (       1 calls)
     phq_init     :     10.88s CPU      3.01s WALL (       1 calls)
 
     phq_init     :     10.88s CPU      3.01s WALL (       1 calls)
     set_drhoc    :      0.38s CPU      0.13s WALL (       3 calls)
     init_vloc    :      0.01s CPU      0.01s WALL (       2 calls)
     init_us_1    :      1.45s CPU      0.48s WALL (       2 calls)
     newd         :      0.06s CPU      0.02s WALL (       2 calls)
     dvanqq       :      0.15s CPU      0.04s WALL (       1 calls)
     drho         :      8.98s CPU      2.44s WALL (       1 calls)
 
     DYNAMICAL MATRIX:
     dynmat0      :      1.44s CPU      0.42s WALL (       1 calls)
     phqscf       :   1844.87s CPU    594.92s WALL (       1 calls)
     dynmatrix    :      0.02s CPU      0.06s WALL (       1 calls)
 
     phqscf       :   1844.87s CPU    594.92s WALL (       1 calls)
     solve_linter :   1839.91s CPU    593.32s WALL (       6 calls)
     drhodv       :      2.17s CPU      0.59s WALL (       6 calls)
 
     dynmat0      :      1.44s CPU      0.42s WALL (       1 calls)
     dynmat_us    :      0.99s CPU      0.29s WALL (       1 calls)
     d2ionq       :      0.01s CPU      0.00s WALL (       1 calls)
     dynmatcc     :      0.38s CPU      0.11s WALL (       1 calls)
 
     dynmat_us    :      0.99s CPU      0.29s WALL (       1 calls)
     addusdynmat  :      0.00s CPU      0.00s WALL (       1 calls)
 
     phqscf       :   1844.87s CPU    594.92s WALL (       1 calls)
     solve_linter :   1839.91s CPU    593.32s WALL (       6 calls)
 
     solve_linter :   1839.91s CPU    593.32s WALL (       6 calls)
     dvqpsi_us    :     27.07s CPU      7.45s WALL (     240 calls)
     ortho        :     23.14s CPU      8.58s WALL (    2600 calls)
     cgsolve      :   1411.35s CPU    406.64s WALL (    2600 calls)
     incdrhoscf   :    158.74s CPU     70.68s WALL (    2600 calls)
     addusddens   :      2.18s CPU      0.56s WALL (      71 calls)
     vpsifft      :     87.37s CPU     24.32s WALL (    2360 calls)
     dv_of_drho   :      0.57s CPU      0.15s WALL (      65 calls)
     mix_pot      :     13.26s CPU      9.66s WALL (      65 calls)
     psymdvscf    :     21.79s CPU      5.97s WALL (      65 calls)
     newdq        :      1.96s CPU      0.50s WALL (      65 calls)
     adddvscf     :      5.77s CPU      1.58s WALL (    2360 calls)
     drhodvus     :      0.00s CPU      0.00s WALL (       6 calls)
 
     dvqpsi_us    :     27.07s CPU      7.45s WALL (     240 calls)
     dvqpsi_us_on :      6.84s CPU      1.87s WALL (     240 calls)
 
     cgsolve      :   1411.35s CPU    406.64s WALL (    2600 calls)
     ch_psi       :   1384.65s CPU    397.95s WALL (   36213 calls)
 
     ch_psi       :   1384.65s CPU    397.95s WALL (   36213 calls)
     h_psi        :   1356.92s CPU    385.84s WALL (   37909 calls)
     last         :     83.30s CPU     26.80s WALL (   36213 calls)
 
     h_psi        :   1356.92s CPU    385.84s WALL (   37909 calls)
     add_vuspsi   :     15.98s CPU      5.31s WALL (   37909 calls)
 
     incdrhoscf   :    158.74s CPU     70.68s WALL (    2600 calls)
     addusdbec    :      6.92s CPU      1.67s WALL (    2840 calls)
 
     drhodvus     :      0.00s CPU      0.00s WALL (       6 calls)
 
      General routines
     calbec       :    261.67s CPU     77.87s WALL (   81082 calls)
     fft          :      2.45s CPU      0.71s WALL (     451 calls)
     ffts         :      0.77s CPU      0.22s WALL (     282 calls)
     fftw         :   1356.54s CPU    394.77s WALL (  631378 calls)
     davcio       :      9.38s CPU      2.97s WALL (   14017 calls)
     write_rec    :     28.34s CPU     13.85s WALL (      71 calls)
 
 
     PHONON       : 33m51.60s CPU    10m58.24s WALL

 
   This run was terminated on:   1:26:33  24Dec2018            

=------------------------------------------------------------------------------=
   JOB DONE.
=------------------------------------------------------------------------------=
