
     Program PHONON v.6.2 (svn rev. 13949:13950) starts on 24Dec2018 at  1:35:14 

     This program is part of the open-source Quantum ESPRESSO suite
     for quantum simulation of materials; please cite
         "P. Giannozzi et al., J. Phys.:Condens. Matter 21 395502 (2009);
         "P. Giannozzi et al., J. Phys.:Condens. Matter 29 465901 (2017);
          URL http://www.quantum-espresso.org", 
     in publications or presentations arising from this work. More details at
     http://www.quantum-espresso.org/quote

     Parallel version (MPI & OpenMP), running on     272 processor cores
     Number of MPI processes:                68
     Threads/MPI process:                     4

     MPI processes distributed on     1 nodes
     R & G space division:  proc/nbgrp/npool/nimage =      68

     Reading data from directory:
     ./GaAs.save

     IMPORTANT: XC functional enforced from input :
     Exchange-correlation      = LDA ( 1  1  0  0 0 0)
     Any further DFT definition will be discarded
     Please, verify this is what you really want

               file Ga.pz-dn-rrkjus_psl.0.2.UPF: wavefunction(s)  4S 3D renormalized
 
     Parallelization info
     --------------------
     sticks:   dense  smooth     PW     G-vecs:    dense   smooth      PW
     Min          11      11      3                  208      208      32
     Max          12      12      4                  212      212      36
     Sum         769     769    235                14211    14211    2277
 

     Check: negative/imaginary core charge=   -0.000007    0.000000

     Calculation of q =    0.1666667  -0.1666667   0.5000000
 
     Parallelization info
     --------------------
     sticks:   dense  smooth     PW     G-vecs:    dense   smooth      PW
     Min          11      11      3                  208      208      36
     Max          12      12      4                  212      212      42
     Sum         769     769    253                14211    14211    2637
 


     bravais-lattice index     =            2
     lattice parameter (alat)  =      10.6031  a.u.
     unit-cell volume          =     298.0132 (a.u.)^3
     number of atoms/cell      =            2
     number of atomic types    =            2
     number of electrons       =        18.00
     number of Kohn-Sham states=           20
     kinetic-energy cutoff     =      50.0000  Ry
     charge density cutoff     =     200.0000  Ry
     Exchange-correlation      = LDA ( 1  1  0  0 0 0)

     celldm(1)=  10.603075  celldm(2)=   0.000000  celldm(3)=   0.000000
     celldm(4)=   0.000000  celldm(5)=   0.000000  celldm(6)=   0.000000

     crystal axes: (cart. coord. in units of alat)
               a(1) = (  -0.500000   0.000000   0.500000 )  
               a(2) = (   0.000000   0.500000   0.500000 )  
               a(3) = (  -0.500000   0.500000   0.000000 )  

     reciprocal axes: (cart. coord. in units 2 pi/alat)
               b(1) = ( -1.000000 -1.000000  1.000000 )  
               b(2) = (  1.000000  1.000000  1.000000 )  
               b(3) = ( -1.000000  1.000000 -1.000000 )  


     PseudoPot. # 1 for Ga read from file:
     ../PP_DIR/Ga.pz-dn-rrkjus_psl.0.2.UPF
     MD5 check sum: 337958ae198bc3768054a43796a587a1
     Pseudo is Ultrasoft + core correction, Zval = 13.0
     Generated using "atomic" code by A. Dal Corso  v.5.0.2 svn rev. 9415
     Using radial grid of 1205 points,  6 beta functions with: 
                l(1) =   0
                l(2) =   0
                l(3) =   1
                l(4) =   1
                l(5) =   2
                l(6) =   2
     Q(r) pseudized with 0 coefficients 


     PseudoPot. # 2 for As read from file:
     ../PP_DIR/As.pz-n-rrkjus_psl.0.2.UPF
     MD5 check sum: f80104272e9b817acfe428865afbdb7e
     Pseudo is Ultrasoft + core correction, Zval =  5.0
     Generated using "atomic" code by A. Dal Corso  v.5.0.2 svn rev. 9415
     Using radial grid of 1209 points,  4 beta functions with: 
                l(1) =   0
                l(2) =   0
                l(3) =   1
                l(4) =   1
     Q(r) pseudized with 0 coefficients 


     atomic species   valence    mass     pseudopotential
        Ga            13.00    69.72300     Ga( 1.00)
        As             5.00    74.92200     As( 1.00)

     24 Sym. Ops. (no inversion) found



   Cartesian axes

     site n.     atom                  positions (alat units)
         1           Ga  tau(   1) = (   0.0000000   0.0000000   0.0000000  )
         2           As  tau(   2) = (  -0.7500000   0.7500000   0.7500000  )

     number of k points=    80
                       cart. coord. in units 2pi/alat
        k(    1) = (   0.0000000   0.0000000   0.0000000), wk =   0.0312500
        k(    2) = (   0.1666667  -0.1666667   0.5000000), wk =   0.0000000
        k(    3) = (  -0.2500000   0.2500000  -0.2500000), wk =   0.0312500
        k(    4) = (  -0.0833333   0.0833333   0.2500000), wk =   0.0000000
        k(    5) = (   0.5000000  -0.5000000   0.5000000), wk =   0.0312500
        k(    6) = (   0.6666667  -0.6666667   1.0000000), wk =   0.0000000
        k(    7) = (   0.0000000   0.5000000   0.0000000), wk =   0.0625000
        k(    8) = (   0.1666667   0.3333333   0.5000000), wk =   0.0000000
        k(    9) = (   0.7500000  -0.2500000   0.7500000), wk =   0.0625000
        k(   10) = (   0.9166667  -0.4166667   1.2500000), wk =   0.0000000
        k(   11) = (   0.5000000   0.0000000   0.5000000), wk =   0.0625000
        k(   12) = (   0.6666667  -0.1666667   1.0000000), wk =   0.0000000
        k(   13) = (   0.0000000  -1.0000000   0.0000000), wk =   0.0625000
        k(   14) = (   0.1666667  -1.1666667   0.5000000), wk =   0.0000000
        k(   15) = (  -0.5000000  -1.0000000   0.0000000), wk =   0.0625000
        k(   16) = (  -0.3333333  -1.1666667   0.5000000), wk =   0.0000000
        k(   17) = (   0.2500000   0.2500000   0.2500000), wk =   0.0625000
        k(   18) = (   0.4166667   0.0833333   0.7500000), wk =   0.0000000
        k(   19) = (   0.2500000  -0.2500000  -0.2500000), wk =   0.0312500
        k(   20) = (   0.4166667  -0.4166667   0.2500000), wk =   0.0000000
        k(   21) = (   0.2500000  -0.2500000   0.2500000), wk =   0.0312500
        k(   22) = (   0.4166667  -0.4166667   0.7500000), wk =   0.0000000
        k(   23) = (  -0.2500000   0.2500000   0.2500000), wk =   0.0312500
        k(   24) = (  -0.0833333   0.0833333   0.7500000), wk =   0.0000000
        k(   25) = (  -0.2500000  -0.2500000  -0.2500000), wk =   0.0625000
        k(   26) = (  -0.0833333  -0.4166667   0.2500000), wk =   0.0000000
        k(   27) = (  -0.5000000  -0.5000000  -0.5000000), wk =   0.0625000
        k(   28) = (  -0.3333333  -0.6666667   0.0000000), wk =   0.0000000
        k(   29) = (  -0.5000000   0.5000000   0.5000000), wk =   0.0312500
        k(   30) = (  -0.3333333   0.3333333   1.0000000), wk =   0.0000000
        k(   31) = (   0.0000000  -0.5000000   0.0000000), wk =   0.0625000
        k(   32) = (   0.1666667  -0.6666667   0.5000000), wk =   0.0000000
        k(   33) = (   0.0000000   0.0000000   0.5000000), wk =   0.0312500
        k(   34) = (   0.1666667  -0.1666667   1.0000000), wk =   0.0000000
        k(   35) = (   0.0000000   0.0000000  -0.5000000), wk =   0.0312500
        k(   36) = (   0.1666667  -0.1666667   0.0000000), wk =   0.0000000
        k(   37) = (  -0.7500000  -0.2500000  -0.7500000), wk =   0.0625000
        k(   38) = (  -0.5833333  -0.4166667  -0.2500000), wk =   0.0000000
        k(   39) = (   0.7500000   0.2500000  -0.7500000), wk =   0.0625000
        k(   40) = (   0.9166667   0.0833333  -0.2500000), wk =   0.0000000
        k(   41) = (  -0.2500000   0.7500000   0.7500000), wk =   0.0625000
        k(   42) = (  -0.0833333   0.5833333   1.2500000), wk =   0.0000000
        k(   43) = (   0.7500000   0.7500000  -0.2500000), wk =   0.0625000
        k(   44) = (   0.9166667   0.5833333   0.2500000), wk =   0.0000000
        k(   45) = (   0.7500000  -0.7500000   0.2500000), wk =   0.0312500
        k(   46) = (   0.9166667  -0.9166667   0.7500000), wk =   0.0000000
        k(   47) = (  -0.7500000   0.7500000   0.2500000), wk =   0.0312500
        k(   48) = (  -0.5833333   0.5833333   0.7500000), wk =   0.0000000
        k(   49) = (  -0.7500000   0.2500000  -0.7500000), wk =   0.0625000
        k(   50) = (  -0.5833333   0.0833333  -0.2500000), wk =   0.0000000
        k(   51) = (   0.7500000  -0.2500000  -0.7500000), wk =   0.0625000
        k(   52) = (   0.9166667  -0.4166667  -0.2500000), wk =   0.0000000
        k(   53) = (   0.7500000   0.2500000   0.7500000), wk =   0.0625000
        k(   54) = (   0.9166667   0.0833333   1.2500000), wk =   0.0000000
        k(   55) = (  -0.7500000  -0.2500000   0.7500000), wk =   0.0625000
        k(   56) = (  -0.5833333  -0.4166667   1.2500000), wk =   0.0000000
        k(   57) = (  -0.7500000   0.7500000  -0.2500000), wk =   0.0312500
        k(   58) = (  -0.5833333   0.5833333   0.2500000), wk =   0.0000000
        k(   59) = (  -0.7500000  -0.7500000   0.2500000), wk =   0.0625000
        k(   60) = (  -0.5833333  -0.9166667   0.7500000), wk =   0.0000000
        k(   61) = (   0.7500000  -0.7500000  -0.2500000), wk =   0.0312500
        k(   62) = (   0.9166667  -0.9166667   0.2500000), wk =   0.0000000
        k(   63) = (  -0.5000000  -0.0000000  -0.5000000), wk =   0.0625000
        k(   64) = (  -0.3333333  -0.1666667   0.0000000), wk =   0.0000000
        k(   65) = (   0.5000000   0.0000000  -0.5000000), wk =   0.0625000
        k(   66) = (   0.6666667  -0.1666667   0.0000000), wk =   0.0000000
        k(   67) = (   0.0000000   0.5000000   0.5000000), wk =   0.0625000
        k(   68) = (   0.1666667   0.3333333   1.0000000), wk =   0.0000000
        k(   69) = (   0.5000000   0.5000000   0.0000000), wk =   0.0625000
        k(   70) = (   0.6666667   0.3333333   0.5000000), wk =   0.0000000
        k(   71) = (   0.5000000  -0.5000000   0.0000000), wk =   0.0312500
        k(   72) = (   0.6666667  -0.6666667   0.5000000), wk =   0.0000000
        k(   73) = (  -0.5000000   0.5000000   0.0000000), wk =   0.0312500
        k(   74) = (  -0.3333333   0.3333333   0.5000000), wk =   0.0000000
        k(   75) = (   0.0000000   0.0000000  -1.0000000), wk =   0.0312500
        k(   76) = (   0.1666667  -0.1666667  -0.5000000), wk =   0.0000000
        k(   77) = (   0.5000000  -1.0000000   0.0000000), wk =   0.0625000
        k(   78) = (   0.6666667  -1.1666667   0.5000000), wk =   0.0000000
        k(   79) = (  -1.0000000   0.0000000  -0.5000000), wk =   0.0625000
        k(   80) = (  -0.8333333  -0.1666667   0.0000000), wk =   0.0000000

     Dense  grid:    14211 G-vectors     FFT dimensions: (  36,  36,  36)

     Estimated max dynamical RAM per process >       4.66 MB

     Estimated total dynamical RAM >     316.94 MB
     Message from routine sym_rho_init:
     some processors have no G-vectors for symmetrization
     Message from routine sym_rho_init:
     some processors have no G-vectors for symmetrization
     Message from routine sym_rho_init:
     some processors have no G-vectors for symmetrization
     Message from routine sym_rho_init:
     some processors have no G-vectors for symmetrization
     Message from routine sym_rho_init:
     some processors have no G-vectors for symmetrization
     Message from routine sym_rho_init:
     some processors have no G-vectors for symmetrization
     Message from routine sym_rho_init:
     some processors have no G-vectors for symmetrization
     Message from routine sym_rho_init:
     some processors have no G-vectors for symmetrization
     Message from routine sym_rho_init:
     some processors have no G-vectors for symmetrization
     Message from routine sym_rho_init:
     some processors have no G-vectors for symmetrization
     Message from routine sym_rho_init:
     some processors have no G-vectors for symmetrization

     Check: negative/imaginary core charge=   -0.000007    0.000000

     The potential is recalculated from file :
     ./_ph0/GaAs.save/charge-density.dat

     Starting wfc are   13 atomic +    7 random wfc

     Band Structure Calculation
     Davidson diagonalization with overlap

     ethr =  5.56E-11,  avg # of iterations = 18.4

     total cpu time spent up to now is       49.6 secs

     End of band structure calculation

          k = 0.0000 0.0000 0.0000 (  1807 PWs)   bands (ev):

    -8.2061  -8.2061  -8.2061  -8.1239  -8.1239  -6.1701   6.7912   6.7912
     6.7912   7.2369  10.4290  10.4290  10.4290  14.2452  17.0280  17.0280
    18.3527  18.3527  18.3527  21.1452

          k = 0.1667-0.1667 0.5000 (  1789 PWs)   bands (ev):

    -8.2734  -8.1844  -8.1817  -8.1325  -8.1171  -5.0367   1.9120   4.8318
     5.1466   9.1868  10.5085  12.3494  12.8472  15.6139  17.5391  17.8374
    19.8487  22.1875  23.5122  23.7664

          k =-0.2500 0.2500-0.2500 (  1799 PWs)   bands (ev):

    -8.2506  -8.1942  -8.1942  -8.1233  -8.1233  -5.4557   2.5166   6.0784
     6.0784   8.1350  11.3239  11.3239  12.7091  15.6436  15.8438  15.8438
    18.7163  22.7171  22.7171  25.4184

          k =-0.0833 0.0833 0.2500 (  1798 PWs)   bands (ev):

    -8.2302  -8.1991  -8.1982  -8.1266  -8.1219  -5.8658   4.3186   6.0981
     6.1838   8.9709  10.0445  11.4190  11.5473  14.9141  15.7956  16.8051
    18.1804  19.6532  20.5899  23.7372

          k = 0.5000-0.5000 0.5000 (  1772 PWs)   bands (ev):

    -8.2882  -8.1857  -8.1857  -8.1190  -8.1190  -4.3343  -0.0703   5.6001
     5.6001   7.6634  11.3411  11.3411  14.3989  17.1864  18.8074  18.8074
    19.3203  20.1052  20.1052  26.4312

          k = 0.6667-0.6667 1.0000 (  1781 PWs)   bands (ev):

    -8.2570  -8.1924  -8.1891  -8.1269  -8.1213  -5.3270   2.5500   4.5822
     6.2389   9.3273  11.1997  11.3083  12.3781  14.7929  16.6699  17.4195
    19.3563  20.7934  23.3805  24.2578

          k = 0.0000 0.5000 0.0000 (  1812 PWs)   bands (ev):

    -8.2720  -8.1805  -8.1805  -8.1364  -8.1164  -5.2137   2.5892   5.0192
     5.0192   8.6081   9.9712  13.4034  13.4034  14.1922  18.0842  18.1897
    20.5689  20.5689  21.1433  25.3700

          k = 0.1667 0.3333 0.5000 (  1784 PWs)   bands (ev):

    -8.2775  -8.1857  -8.1826  -8.1280  -8.1186  -4.7934   1.2335   4.4110
     5.5273   9.2263  10.8991  12.2417  12.9778  15.8494  16.8678  18.5981
    19.8891  22.0395  23.2705  24.2622

          k = 0.7500-0.2500 0.7500 (  1776 PWs)   bands (ev):

    -8.3000  -8.1743  -8.1685  -8.1354  -8.1153  -4.0365   0.3275   3.4016
     4.6616   8.8419  11.4505  12.9515  13.7379  17.1744  18.9601  19.4369
    19.9523  21.0853  24.5876  25.6005

          k = 0.9167-0.4167 1.2500 (  1777 PWs)   bands (ev):

    -8.2850  -8.1797  -8.1756  -8.1347  -8.1160  -4.7005   1.3888   4.0670
     4.9737   9.4232  10.5162  12.1384  13.6769  16.0652  18.1986  18.9381
    20.2101  21.7498  22.8307  23.9820

          k = 0.5000 0.0000 0.5000 (  1780 PWs)   bands (ev):

    -8.2846  -8.1818  -8.1792  -8.1255  -8.1230  -4.4708   0.9808   3.2631
     5.5139   9.4294  12.3513  12.4186  12.5645  15.1788  17.1417  19.5429
    20.1968  21.2839  24.4493  25.5045

          k = 0.6667-0.1667 1.0000 (  1779 PWs)   bands (ev):

    -8.3064  -8.1712  -8.1609  -8.1386  -8.1154  -3.7570   0.1743   3.2264
     3.8488   9.9764  10.3295  12.6733  15.3634  16.7589  18.5831  20.5844
    21.2543  22.4601  23.4084  24.1757

          k = 0.0000-1.0000 0.0000 (  1772 PWs)   bands (ev):

    -8.3210  -8.1537  -8.1537  -8.1515  -8.1088  -3.5615  -0.2377   4.0011
     4.0011   8.0394   8.2790  17.0147  17.0147  17.7918  20.1362  20.3420
    20.3420  20.5027  22.5458  26.4552

          k = 0.1667-1.1667 0.5000 (  1788 PWs)   bands (ev):

    -8.3014  -8.1772  -8.1645  -8.1322  -8.1191  -3.7588   0.0953   2.9628
     4.2120  10.3461  11.0247  12.9749  14.1569  15.4283  19.0423  19.6756
    20.2200  23.8113  24.3085  25.1065

          k =-0.5000-1.0000 0.0000 (  1768 PWs)   bands (ev):

    -8.3069  -8.1738  -8.1585  -8.1354  -8.1185  -3.4958  -0.0466   3.0971
     3.2746  11.4121  11.4148  12.1456  12.7147  17.9199  19.1382  20.2152
    20.6959  23.7217  24.7226  24.7694

          k =-0.3333-1.1667 0.5000 (  1770 PWs)   bands (ev):

    -8.2946  -8.1803  -8.1726  -8.1276  -8.1201  -4.0553   0.2434   3.3126
     4.9214   9.6021  11.1405  12.9827  14.2077  15.5837  17.3753  18.8034
    20.9208  22.9685  23.6997  24.7255

          k = 0.2500 0.2500 0.2500 (  1799 PWs)   bands (ev):

    -8.2506  -8.1942  -8.1942  -8.1233  -8.1233  -5.4557   2.5166   6.0784
     6.0784   8.1350  11.3239  11.3239  12.7091  15.6436  15.8438  15.8438
    18.7163  22.7171  22.7171  25.4184

          k = 0.4167 0.0833 0.7500 (  1777 PWs)   bands (ev):

    -8.2996  -8.1771  -8.1658  -8.1333  -8.1181  -3.9212   0.3132   3.0700
     4.3312  10.3252  11.0605  12.0282  14.8878  15.7529  17.9291  20.2216
    20.8099  22.8222  23.2609  25.0576

          k = 0.2500-0.2500-0.2500 (  1799 PWs)   bands (ev):

    -8.2506  -8.1942  -8.1942  -8.1233  -8.1233  -5.4557   2.5166   6.0784
     6.0784   8.1350  11.3239  11.3239  12.7091  15.6436  15.8438  15.8438
    18.7163  22.7171  22.7171  25.4184

          k = 0.4167-0.4167 0.2500 (  1785 PWs)   bands (ev):

    -8.2772  -8.1871  -8.1863  -8.1232  -8.1201  -4.7604   0.8956   4.9555
     5.8149   8.4431  11.4085  11.4590  14.0267  15.9367  16.0817  18.1954
    20.0368  22.2373  23.8355  24.1376

          k = 0.2500-0.2500 0.2500 (  1799 PWs)   bands (ev):

    -8.2506  -8.1942  -8.1942  -8.1233  -8.1233  -5.4557   2.5166   6.0784
     6.0784   8.1350  11.3239  11.3239  12.7091  15.6436  15.8438  15.8438
    18.7163  22.7171  22.7171  25.4184

          k = 0.4167-0.4167 0.7500 (  1783 PWs)   bands (ev):

    -8.2924  -8.1817  -8.1779  -8.1242  -8.1202  -4.1387   0.0949   3.8330
     5.2492   9.0498  11.2529  12.2862  14.7290  16.2620  17.2479  17.9265
    20.7660  22.2583  22.8699  25.0751

          k =-0.2500 0.2500 0.2500 (  1799 PWs)   bands (ev):

    -8.2506  -8.1942  -8.1942  -8.1233  -8.1233  -5.4557   2.5166   6.0784
     6.0784   8.1350  11.3239  11.3239  12.7091  15.6436  15.8438  15.8438
    18.7163  22.7171  22.7171  25.4184

          k =-0.0833 0.0833 0.7500 (  1762 PWs)   bands (ev):

    -8.3066  -8.1638  -8.1624  -8.1452  -8.1115  -4.1860   0.6781   4.0228
     4.3113   8.3093   9.2029  14.7284  15.2624  16.9468  19.5373  19.9394
    21.5699  21.9766  22.7819  23.5735

          k =-0.2500-0.2500-0.2500 (  1799 PWs)   bands (ev):

    -8.2506  -8.1942  -8.1942  -8.1233  -8.1233  -5.4557   2.5166   6.0784
     6.0784   8.1350  11.3239  11.3239  12.7091  15.6436  15.8438  15.8438
    18.7163  22.7171  22.7171  25.4184

          k =-0.0833-0.4167 0.2500 (  1789 PWs)   bands (ev):

    -8.2622  -8.1897  -8.1870  -8.1292  -8.1194  -5.2528   2.3499   4.7530
     5.8354   9.4053  10.4741  12.1863  12.3844  15.0166  16.8215  17.6069
    19.3349  21.3794  23.4486  23.8355

          k =-0.5000-0.5000-0.5000 (  1772 PWs)   bands (ev):

    -8.2882  -8.1857  -8.1857  -8.1190  -8.1190  -4.3343  -0.0703   5.6001
     5.6001   7.6634  11.3411  11.3411  14.3989  17.1864  18.8074  18.8074
    19.3203  20.1052  20.1052  26.4312

          k =-0.3333-0.6667 0.0000 (  1777 PWs)   bands (ev):

    -8.2940  -8.1776  -8.1698  -8.1349  -8.1166  -4.2939   0.8210   3.4261
     4.6386  10.1505  10.5738  11.7706  14.6440  16.2059  17.9655  20.0053
    20.6442  21.3812  23.6073  24.3240

          k =-0.5000 0.5000 0.5000 (  1772 PWs)   bands (ev):

    -8.2882  -8.1857  -8.1857  -8.1190  -8.1190  -4.3343  -0.0703   5.6001
     5.6001   7.6634  11.3411  11.3411  14.3989  17.1864  18.8074  18.8074
    19.3203  20.1052  20.1052  26.4312

          k =-0.3333 0.3333 1.0000 (  1768 PWs)   bands (ev):

    -8.3018  -8.1744  -8.1662  -8.1324  -8.1195  -3.7600   0.1357   2.6361
     4.7485   8.8769  12.6476  13.9690  14.3137  14.4666  16.5056  21.1171
    21.5620  23.1208  24.4984  25.2349

          k = 0.0000-0.5000 0.0000 (  1812 PWs)   bands (ev):

    -8.2720  -8.1805  -8.1805  -8.1364  -8.1164  -5.2137   2.5892   5.0192
     5.0192   8.6081   9.9712  13.4034  13.4034  14.1922  18.0842  18.1897
    20.5689  20.5689  21.1433  25.3700

          k = 0.1667-0.6667 0.5000 (  1770 PWs)   bands (ev):

    -8.2946  -8.1803  -8.1726  -8.1276  -8.1201  -4.0553   0.2434   3.3126
     4.9214   9.6021  11.1405  12.9827  14.2077  15.5837  17.3753  18.8034
    20.9208  22.9685  23.6997  24.7255

          k = 0.0000 0.0000 0.5000 (  1812 PWs)   bands (ev):

    -8.2720  -8.1805  -8.1805  -8.1364  -8.1164  -5.2137   2.5892   5.0192
     5.0192   8.6081   9.9712  13.4034  13.4034  14.1922  18.0842  18.1897
    20.5689  20.5689  21.1433  25.3700

          k = 0.1667-0.1667 1.0000 (  1764 PWs)   bands (ev):

    -8.3148  -8.1624  -8.1569  -8.1444  -8.1122  -3.5493  -0.1509   3.1639
     4.1982   8.3432   9.8689  15.5625  15.8117  16.5727  18.4444  20.4685
    22.2955  22.6009  24.0683  24.3641

          k = 0.0000 0.0000-0.5000 (  1812 PWs)   bands (ev):

    -8.2720  -8.1805  -8.1805  -8.1364  -8.1164  -5.2137   2.5892   5.0192
     5.0192   8.6081   9.9712  13.4034  13.4034  14.1922  18.0842  18.1897
    20.5689  20.5689  21.1433  25.3700

          k = 0.1667-0.1667 0.0000 (  1787 PWs)   bands (ev):

    -8.2231  -8.2024  -8.2001  -8.1251  -8.1230  -5.9476   4.6632   6.0611
     6.6702   8.6396  10.5188  10.6484  11.4248  15.3920  15.5939  16.2530
    18.5293  18.8785  20.6943  22.9701

          k =-0.7500-0.2500-0.7500 (  1776 PWs)   bands (ev):

    -8.3000  -8.1743  -8.1685  -8.1354  -8.1153  -4.0365   0.3275   3.4016
     4.6616   8.8419  11.4505  12.9515  13.7379  17.1744  18.9601  19.4369
    19.9523  21.0853  24.5876  25.6005

          k =-0.5833-0.4167-0.2500 (  1776 PWs)   bands (ev):

    -8.2881  -8.1836  -8.1798  -8.1254  -8.1186  -4.3606   0.3703   4.2338
     5.2965   9.0884  10.9301  12.2445  14.0291  16.3334  17.4527  18.5789
    19.9074  21.4552  23.6375  24.7310

          k = 0.7500 0.2500-0.7500 (  1776 PWs)   bands (ev):

    -8.3000  -8.1743  -8.1685  -8.1354  -8.1153  -4.0365   0.3275   3.4016
     4.6616   8.8419  11.4505  12.9515  13.7379  17.1744  18.9601  19.4369
    19.9523  21.0853  24.5876  25.6005

          k = 0.9167 0.0833-0.2500 (  1770 PWs)   bands (ev):

    -8.3125  -8.1648  -8.1583  -8.1426  -8.1130  -3.6104  -0.0485   3.2506
     3.9542   8.8667   9.9575  14.3523  15.5903  17.1072  19.1584  19.8996
    21.4584  23.0193  23.6686  24.9096

          k =-0.2500 0.7500 0.7500 (  1776 PWs)   bands (ev):

    -8.3000  -8.1743  -8.1685  -8.1354  -8.1153  -4.0365   0.3275   3.4016
     4.6616   8.8419  11.4505  12.9515  13.7379  17.1744  18.9601  19.4369
    19.9523  21.0853  24.5876  25.6005

          k =-0.0833 0.5833 1.2500 (  1776 PWs)   bands (ev):

    -8.3016  -8.1759  -8.1652  -8.1323  -8.1193  -3.7594   0.1152   2.7797
     4.4924   9.3919  12.1786  13.0944  14.2300  15.1898  17.4246  20.4836
    21.3002  23.3870  24.0208  25.1567

          k = 0.7500 0.7500-0.2500 (  1776 PWs)   bands (ev):

    -8.3000  -8.1743  -8.1685  -8.1354  -8.1153  -4.0365   0.3275   3.4016
     4.6616   8.8419  11.4505  12.9515  13.7379  17.1744  18.9601  19.4369
    19.9523  21.0853  24.5876  25.6005

          k = 0.9167 0.5833 0.2500 (  1777 PWs)   bands (ev):

    -8.2996  -8.1771  -8.1658  -8.1333  -8.1181  -3.9212   0.3132   3.0700
     4.3312  10.3252  11.0605  12.0282  14.8878  15.7529  17.9291  20.2216
    20.8099  22.8222  23.2609  25.0576

          k = 0.7500-0.7500 0.2500 (  1776 PWs)   bands (ev):

    -8.3000  -8.1743  -8.1685  -8.1354  -8.1153  -4.0365   0.3275   3.4016
     4.6616   8.8419  11.4505  12.9515  13.7379  17.1744  18.9601  19.4369
    19.9523  21.0853  24.5876  25.6005

          k = 0.9167-0.9167 0.7500 (  1798 PWs)   bands (ev):

    -8.2302  -8.1991  -8.1982  -8.1266  -8.1219  -5.8658   4.3186   6.0981
     6.1838   8.9709  10.0445  11.4190  11.5473  14.9141  15.7956  16.8051
    18.1804  19.6532  20.5899  23.7372

          k =-0.7500 0.7500 0.2500 (  1776 PWs)   bands (ev):

    -8.3000  -8.1743  -8.1685  -8.1354  -8.1153  -4.0365   0.3275   3.4016
     4.6616   8.8419  11.4505  12.9515  13.7379  17.1744  18.9601  19.4369
    19.9523  21.0853  24.5876  25.6005

          k =-0.5833 0.5833 0.7500 (  1785 PWs)   bands (ev):

    -8.2772  -8.1871  -8.1863  -8.1232  -8.1201  -4.7604   0.8956   4.9555
     5.8149   8.4431  11.4085  11.4590  14.0267  15.9367  16.0817  18.1954
    20.0368  22.2373  23.8355  24.1376

          k =-0.7500 0.2500-0.7500 (  1776 PWs)   bands (ev):

    -8.3000  -8.1743  -8.1685  -8.1354  -8.1153  -4.0365   0.3275   3.4016
     4.6616   8.8419  11.4505  12.9515  13.7379  17.1744  18.9601  19.4369
    19.9523  21.0853  24.5876  25.6005

          k =-0.5833 0.0833-0.2500 (  1777 PWs)   bands (ev):

    -8.2850  -8.1797  -8.1756  -8.1347  -8.1160  -4.7005   1.3888   4.0670
     4.9737   9.4232  10.5162  12.1384  13.6769  16.0652  18.1986  18.9381
    20.2101  21.7498  22.8307  23.9820

          k = 0.7500-0.2500-0.7500 (  1776 PWs)   bands (ev):

    -8.3000  -8.1743  -8.1685  -8.1354  -8.1153  -4.0365   0.3275   3.4016
     4.6616   8.8419  11.4505  12.9515  13.7379  17.1744  18.9601  19.4369
    19.9523  21.0853  24.5876  25.6005

          k = 0.9167-0.4167-0.2500 (  1776 PWs)   bands (ev):

    -8.3016  -8.1759  -8.1652  -8.1323  -8.1193  -3.7594   0.1152   2.7797
     4.4924   9.3919  12.1786  13.0944  14.2300  15.1898  17.4246  20.4836
    21.3002  23.3870  24.0208  25.1567

          k = 0.7500 0.2500 0.7500 (  1776 PWs)   bands (ev):

    -8.3000  -8.1743  -8.1685  -8.1354  -8.1153  -4.0365   0.3275   3.4016
     4.6616   8.8419  11.4505  12.9515  13.7379  17.1744  18.9601  19.4369
    19.9523  21.0853  24.5876  25.6005

          k = 0.9167 0.0833 1.2500 (  1770 PWs)   bands (ev):

    -8.3125  -8.1648  -8.1583  -8.1426  -8.1130  -3.6104  -0.0485   3.2506
     3.9542   8.8667   9.9575  14.3523  15.5903  17.1072  19.1584  19.8996
    21.4584  23.0193  23.6686  24.9096

          k =-0.7500-0.2500 0.7500 (  1776 PWs)   bands (ev):

    -8.3000  -8.1743  -8.1685  -8.1354  -8.1153  -4.0365   0.3275   3.4016
     4.6616   8.8419  11.4505  12.9515  13.7379  17.1744  18.9601  19.4369
    19.9523  21.0853  24.5876  25.6005

          k =-0.5833-0.4167 1.2500 (  1776 PWs)   bands (ev):

    -8.2881  -8.1836  -8.1798  -8.1254  -8.1186  -4.3606   0.3703   4.2338
     5.2965   9.0884  10.9301  12.2445  14.0291  16.3334  17.4527  18.5789
    19.9074  21.4552  23.6375  24.7310

          k =-0.7500 0.7500-0.2500 (  1776 PWs)   bands (ev):

    -8.3000  -8.1743  -8.1685  -8.1354  -8.1153  -4.0365   0.3275   3.4016
     4.6616   8.8419  11.4505  12.9515  13.7379  17.1744  18.9601  19.4369
    19.9523  21.0853  24.5876  25.6005

          k =-0.5833 0.5833 0.2500 (  1783 PWs)   bands (ev):

    -8.2924  -8.1817  -8.1779  -8.1242  -8.1202  -4.1387   0.0949   3.8330
     5.2492   9.0498  11.2529  12.2862  14.7290  16.2620  17.2479  17.9265
    20.7660  22.2583  22.8699  25.0751

          k =-0.7500-0.7500 0.2500 (  1776 PWs)   bands (ev):

    -8.3000  -8.1743  -8.1685  -8.1354  -8.1153  -4.0365   0.3275   3.4016
     4.6616   8.8419  11.4505  12.9515  13.7379  17.1744  18.9601  19.4369
    19.9523  21.0853  24.5876  25.6005

          k =-0.5833-0.9167 0.7500 (  1789 PWs)   bands (ev):

    -8.2622  -8.1897  -8.1870  -8.1292  -8.1194  -5.2528   2.3499   4.7530
     5.8354   9.4053  10.4741  12.1863  12.3844  15.0166  16.8215  17.6069
    19.3349  21.3794  23.4486  23.8355

          k = 0.7500-0.7500-0.2500 (  1776 PWs)   bands (ev):

    -8.3000  -8.1743  -8.1685  -8.1354  -8.1153  -4.0365   0.3275   3.4016
     4.6616   8.8419  11.4505  12.9515  13.7379  17.1744  18.9601  19.4369
    19.9523  21.0853  24.5876  25.6005

          k = 0.9167-0.9167 0.2500 (  1762 PWs)   bands (ev):

    -8.3066  -8.1638  -8.1624  -8.1452  -8.1115  -4.1860   0.6781   4.0228
     4.3113   8.3093   9.2029  14.7284  15.2624  16.9468  19.5373  19.9394
    21.5699  21.9766  22.7819  23.5735

          k =-0.5000-0.0000-0.5000 (  1780 PWs)   bands (ev):

    -8.2846  -8.1818  -8.1792  -8.1255  -8.1230  -4.4708   0.9808   3.2631
     5.5139   9.4294  12.3513  12.4186  12.5645  15.1788  17.1417  19.5429
    20.1968  21.2839  24.4493  25.5045

          k =-0.3333-0.1667 0.0000 (  1785 PWs)   bands (ev):

    -8.2451  -8.1947  -8.1925  -8.1284  -8.1206  -5.6268   3.4699   5.3279
     6.0942   9.4068   9.9771  11.7929  12.1744  14.6114  16.5902  16.8003
    18.9846  19.7265  21.9355  25.2937

          k = 0.5000 0.0000-0.5000 (  1780 PWs)   bands (ev):

    -8.2846  -8.1818  -8.1792  -8.1255  -8.1230  -4.4708   0.9808   3.2631
     5.5139   9.4294  12.3513  12.4186  12.5645  15.1788  17.1417  19.5429
    20.1968  21.2839  24.4493  25.5045

          k = 0.6667-0.1667 0.0000 (  1773 PWs)   bands (ev):

    -8.2963  -8.1710  -8.1682  -8.1410  -8.1134  -4.4888   1.1543   4.0997
     4.5011   8.7919   9.6832  13.3521  14.7993  16.3094  19.1531  19.4114
    21.1781  21.7495  22.9980  23.2414

          k = 0.0000 0.5000 0.5000 (  1780 PWs)   bands (ev):

    -8.2846  -8.1818  -8.1792  -8.1255  -8.1230  -4.4708   0.9808   3.2631
     5.5139   9.4294  12.3513  12.4186  12.5645  15.1788  17.1417  19.5429
    20.1968  21.2839  24.4493  25.5045

          k = 0.1667 0.3333 1.0000 (  1769 PWs)   bands (ev):

    -8.3082  -8.1702  -8.1601  -8.1379  -8.1163  -3.5760  -0.0424   2.7983
     4.1478   9.0777  11.3958  13.9467  14.2408  16.3504  17.9700  20.8064
    22.1099  23.2261  23.6423  25.2354

          k = 0.5000 0.5000 0.0000 (  1780 PWs)   bands (ev):

    -8.2846  -8.1818  -8.1792  -8.1255  -8.1230  -4.4708   0.9808   3.2631
     5.5139   9.4294  12.3513  12.4186  12.5645  15.1788  17.1417  19.5429
    20.1968  21.2839  24.4493  25.5045

          k = 0.6667 0.3333 0.5000 (  1776 PWs)   bands (ev):

    -8.2919  -8.1830  -8.1789  -8.1237  -8.1192  -4.1665   0.0279   4.1799
     5.2117   9.0391  10.9014  12.2269  14.7947  16.2597  17.5672  18.7319
    19.5238  21.7538  22.6350  25.9311

          k = 0.5000-0.5000 0.0000 (  1780 PWs)   bands (ev):

    -8.2846  -8.1818  -8.1792  -8.1255  -8.1230  -4.4708   0.9808   3.2631
     5.5139   9.4294  12.3513  12.4186  12.5645  15.1788  17.1417  19.5429
    20.1968  21.2839  24.4493  25.5045

          k = 0.6667-0.6667 0.5000 (  1782 PWs)   bands (ev):

    -8.2819  -8.1865  -8.1843  -8.1239  -8.1184  -4.6089   0.5830   5.1719
     5.4343   8.4261  11.0591  11.8237  14.1056  15.8646  17.2827  18.1783
    20.1144  21.2975  23.2903  24.7070

          k =-0.5000 0.5000 0.0000 (  1780 PWs)   bands (ev):

    -8.2846  -8.1818  -8.1792  -8.1255  -8.1230  -4.4708   0.9808   3.2631
     5.5139   9.4294  12.3513  12.4186  12.5645  15.1788  17.1417  19.5429
    20.1968  21.2839  24.4493  25.5045

          k =-0.3333 0.3333 0.5000 (  1782 PWs)   bands (ev):

    -8.2819  -8.1865  -8.1843  -8.1239  -8.1184  -4.6089   0.5830   5.1719
     5.4343   8.4261  11.0591  11.8237  14.1056  15.8646  17.2827  18.1783
    20.1144  21.2975  23.2903  24.7070

          k = 0.0000 0.0000-1.0000 (  1772 PWs)   bands (ev):

    -8.3210  -8.1537  -8.1537  -8.1515  -8.1088  -3.5615  -0.2377   4.0011
     4.0011   8.0394   8.2790  17.0147  17.0147  17.7918  20.1362  20.3420
    20.3420  20.5027  22.5458  26.4552

          k = 0.1667-0.1667-0.5000 (  1789 PWs)   bands (ev):

    -8.2734  -8.1844  -8.1817  -8.1325  -8.1171  -5.0367   1.9120   4.8318
     5.1466   9.1868  10.5085  12.3494  12.8472  15.6139  17.5391  17.8374
    19.8487  22.1875  23.5122  23.7664

          k = 0.5000-1.0000 0.0000 (  1768 PWs)   bands (ev):

    -8.3069  -8.1738  -8.1585  -8.1354  -8.1185  -3.4958  -0.0466   3.0971
     3.2746  11.4121  11.4148  12.1456  12.7147  17.9199  19.1382  20.2152
    20.6959  23.7217  24.7226  24.7694

          k = 0.6667-1.1667 0.5000 (  1784 PWs)   bands (ev):

    -8.2775  -8.1857  -8.1826  -8.1280  -8.1186  -4.7934   1.2335   4.4110
     5.5273   9.2263  10.8991  12.2417  12.9778  15.8494  16.8678  18.5981
    19.8891  22.0395  23.2705  24.2622

          k =-1.0000 0.0000-0.5000 (  1768 PWs)   bands (ev):

    -8.3069  -8.1738  -8.1585  -8.1354  -8.1185  -3.4958  -0.0466   3.0971
     3.2746  11.4121  11.4148  12.1456  12.7147  17.9199  19.1382  20.2152
    20.6959  23.7217  24.7226  24.7694

          k =-0.8333-0.1667 0.0000 (  1761 PWs)   bands (ev):

    -8.3123  -8.1619  -8.1590  -8.1456  -8.1112  -3.8552   0.2185   3.8000
     3.9976   8.5924   9.1071  14.6821  16.1504  17.3874  19.2814  20.1907
    21.2181  22.0353  23.1920  24.0742

     highest occupied, lowest unoccupied level (ev):     6.7912    7.2369

     Writing output data file GaAs.save

                                                                                

     bravais-lattice index     =            2
     lattice parameter (alat)  =      10.6031  a.u.
     unit-cell volume          =     298.0132 (a.u.)^3
     number of atoms/cell      =            2
     number of atomic types    =            2
     kinetic-energy cut-off    =      50.0000  Ry
     charge density cut-off    =     200.0000  Ry
     convergence threshold     =      1.0E-14
     beta                      =       0.7000
     number of iterations used =            4
     Exchange-correlation      = LDA ( 1  1  0  0 0 0)


     celldm(1)=   10.60307  celldm(2)=    0.00000  celldm(3)=    0.00000
     celldm(4)=    0.00000  celldm(5)=    0.00000  celldm(6)=    0.00000

     crystal axes: (cart. coord. in units of alat)
               a(1) = ( -0.5000  0.0000  0.5000 )  
               a(2) = (  0.0000  0.5000  0.5000 )  
               a(3) = ( -0.5000  0.5000  0.0000 )  

     reciprocal axes: (cart. coord. in units 2 pi/alat)
               b(1) = ( -1.0000 -1.0000  1.0000 )  
               b(2) = (  1.0000  1.0000  1.0000 )  
               b(3) = ( -1.0000  1.0000 -1.0000 )  


     Atoms inside the unit cell: 

     Cartesian axes

     site n.  atom      mass           positions (alat units)
        1     Ga  69.7230   tau(    1) = (    0.00000    0.00000    0.00000  )
        2     As  74.9220   tau(    2) = (   -0.75000    0.75000    0.75000  )

     Computing dynamical matrix for 
                    q = (   0.1666667  -0.1666667   0.5000000 )
 
      2 Sym.Ops. (no q -> -q+G )


     G cutoff =  569.5527  (    212 G-vectors)     FFT grid: ( 36, 36, 36)
     number of k points=    80
                       cart. coord. in units 2pi/alat
        k(    1) = (   0.0000000   0.0000000   0.0000000), wk =   0.0312500
        k(    2) = (   0.1666667  -0.1666667   0.5000000), wk =   0.0000000
        k(    3) = (  -0.2500000   0.2500000  -0.2500000), wk =   0.0312500
        k(    4) = (  -0.0833333   0.0833333   0.2500000), wk =   0.0000000
        k(    5) = (   0.5000000  -0.5000000   0.5000000), wk =   0.0312500
        k(    6) = (   0.6666667  -0.6666667   1.0000000), wk =   0.0000000
        k(    7) = (   0.0000000   0.5000000   0.0000000), wk =   0.0625000
        k(    8) = (   0.1666667   0.3333333   0.5000000), wk =   0.0000000
        k(    9) = (   0.7500000  -0.2500000   0.7500000), wk =   0.0625000
        k(   10) = (   0.9166667  -0.4166667   1.2500000), wk =   0.0000000
        k(   11) = (   0.5000000   0.0000000   0.5000000), wk =   0.0625000
        k(   12) = (   0.6666667  -0.1666667   1.0000000), wk =   0.0000000
        k(   13) = (   0.0000000  -1.0000000   0.0000000), wk =   0.0625000
        k(   14) = (   0.1666667  -1.1666667   0.5000000), wk =   0.0000000
        k(   15) = (  -0.5000000  -1.0000000   0.0000000), wk =   0.0625000
        k(   16) = (  -0.3333333  -1.1666667   0.5000000), wk =   0.0000000
        k(   17) = (   0.2500000   0.2500000   0.2500000), wk =   0.0625000
        k(   18) = (   0.4166667   0.0833333   0.7500000), wk =   0.0000000
        k(   19) = (   0.2500000  -0.2500000  -0.2500000), wk =   0.0312500
        k(   20) = (   0.4166667  -0.4166667   0.2500000), wk =   0.0000000
        k(   21) = (   0.2500000  -0.2500000   0.2500000), wk =   0.0312500
        k(   22) = (   0.4166667  -0.4166667   0.7500000), wk =   0.0000000
        k(   23) = (  -0.2500000   0.2500000   0.2500000), wk =   0.0312500
        k(   24) = (  -0.0833333   0.0833333   0.7500000), wk =   0.0000000
        k(   25) = (  -0.2500000  -0.2500000  -0.2500000), wk =   0.0625000
        k(   26) = (  -0.0833333  -0.4166667   0.2500000), wk =   0.0000000
        k(   27) = (  -0.5000000  -0.5000000  -0.5000000), wk =   0.0625000
        k(   28) = (  -0.3333333  -0.6666667   0.0000000), wk =   0.0000000
        k(   29) = (  -0.5000000   0.5000000   0.5000000), wk =   0.0312500
        k(   30) = (  -0.3333333   0.3333333   1.0000000), wk =   0.0000000
        k(   31) = (   0.0000000  -0.5000000   0.0000000), wk =   0.0625000
        k(   32) = (   0.1666667  -0.6666667   0.5000000), wk =   0.0000000
        k(   33) = (   0.0000000   0.0000000   0.5000000), wk =   0.0312500
        k(   34) = (   0.1666667  -0.1666667   1.0000000), wk =   0.0000000
        k(   35) = (   0.0000000   0.0000000  -0.5000000), wk =   0.0312500
        k(   36) = (   0.1666667  -0.1666667   0.0000000), wk =   0.0000000
        k(   37) = (  -0.7500000  -0.2500000  -0.7500000), wk =   0.0625000
        k(   38) = (  -0.5833333  -0.4166667  -0.2500000), wk =   0.0000000
        k(   39) = (   0.7500000   0.2500000  -0.7500000), wk =   0.0625000
        k(   40) = (   0.9166667   0.0833333  -0.2500000), wk =   0.0000000
        k(   41) = (  -0.2500000   0.7500000   0.7500000), wk =   0.0625000
        k(   42) = (  -0.0833333   0.5833333   1.2500000), wk =   0.0000000
        k(   43) = (   0.7500000   0.7500000  -0.2500000), wk =   0.0625000
        k(   44) = (   0.9166667   0.5833333   0.2500000), wk =   0.0000000
        k(   45) = (   0.7500000  -0.7500000   0.2500000), wk =   0.0312500
        k(   46) = (   0.9166667  -0.9166667   0.7500000), wk =   0.0000000
        k(   47) = (  -0.7500000   0.7500000   0.2500000), wk =   0.0312500
        k(   48) = (  -0.5833333   0.5833333   0.7500000), wk =   0.0000000
        k(   49) = (  -0.7500000   0.2500000  -0.7500000), wk =   0.0625000
        k(   50) = (  -0.5833333   0.0833333  -0.2500000), wk =   0.0000000
        k(   51) = (   0.7500000  -0.2500000  -0.7500000), wk =   0.0625000
        k(   52) = (   0.9166667  -0.4166667  -0.2500000), wk =   0.0000000
        k(   53) = (   0.7500000   0.2500000   0.7500000), wk =   0.0625000
        k(   54) = (   0.9166667   0.0833333   1.2500000), wk =   0.0000000
        k(   55) = (  -0.7500000  -0.2500000   0.7500000), wk =   0.0625000
        k(   56) = (  -0.5833333  -0.4166667   1.2500000), wk =   0.0000000
        k(   57) = (  -0.7500000   0.7500000  -0.2500000), wk =   0.0312500
        k(   58) = (  -0.5833333   0.5833333   0.2500000), wk =   0.0000000
        k(   59) = (  -0.7500000  -0.7500000   0.2500000), wk =   0.0625000
        k(   60) = (  -0.5833333  -0.9166667   0.7500000), wk =   0.0000000
        k(   61) = (   0.7500000  -0.7500000  -0.2500000), wk =   0.0312500
        k(   62) = (   0.9166667  -0.9166667   0.2500000), wk =   0.0000000
        k(   63) = (  -0.5000000  -0.0000000  -0.5000000), wk =   0.0625000
        k(   64) = (  -0.3333333  -0.1666667   0.0000000), wk =   0.0000000
        k(   65) = (   0.5000000   0.0000000  -0.5000000), wk =   0.0625000
        k(   66) = (   0.6666667  -0.1666667   0.0000000), wk =   0.0000000
        k(   67) = (   0.0000000   0.5000000   0.5000000), wk =   0.0625000
        k(   68) = (   0.1666667   0.3333333   1.0000000), wk =   0.0000000
        k(   69) = (   0.5000000   0.5000000   0.0000000), wk =   0.0625000
        k(   70) = (   0.6666667   0.3333333   0.5000000), wk =   0.0000000
        k(   71) = (   0.5000000  -0.5000000   0.0000000), wk =   0.0312500
        k(   72) = (   0.6666667  -0.6666667   0.5000000), wk =   0.0000000
        k(   73) = (  -0.5000000   0.5000000   0.0000000), wk =   0.0312500
        k(   74) = (  -0.3333333   0.3333333   0.5000000), wk =   0.0000000
        k(   75) = (   0.0000000   0.0000000  -1.0000000), wk =   0.0312500
        k(   76) = (   0.1666667  -0.1666667  -0.5000000), wk =   0.0000000
        k(   77) = (   0.5000000  -1.0000000   0.0000000), wk =   0.0625000
        k(   78) = (   0.6666667  -1.1666667   0.5000000), wk =   0.0000000
        k(   79) = (  -1.0000000   0.0000000  -0.5000000), wk =   0.0625000
        k(   80) = (  -0.8333333  -0.1666667   0.0000000), wk =   0.0000000

     PseudoPot. # 1 for Ga read from file:
     ../PP_DIR/Ga.pz-dn-rrkjus_psl.0.2.UPF
     MD5 check sum: 337958ae198bc3768054a43796a587a1
     Pseudo is Ultrasoft + core correction, Zval = 13.0
     Generated using "atomic" code by A. Dal Corso  v.5.0.2 svn rev. 9415
     Using radial grid of 1205 points,  6 beta functions with: 
                l(1) =   0
                l(2) =   0
                l(3) =   1
                l(4) =   1
                l(5) =   2
                l(6) =   2
     Q(r) pseudized with 0 coefficients 


     PseudoPot. # 2 for As read from file:
     ../PP_DIR/As.pz-n-rrkjus_psl.0.2.UPF
     MD5 check sum: f80104272e9b817acfe428865afbdb7e
     Pseudo is Ultrasoft + core correction, Zval =  5.0
     Generated using "atomic" code by A. Dal Corso  v.5.0.2 svn rev. 9415
     Using radial grid of 1209 points,  4 beta functions with: 
                l(1) =   0
                l(2) =   0
                l(3) =   1
                l(4) =   1
     Q(r) pseudized with 0 coefficients 


     Mode symmetry, C_s (m)     point group:


     Atomic displacements:
     There are   6 irreducible representations

     Representation     1      1 modes -A'  To be done

     Representation     2      1 modes -A'  To be done

     Representation     3      1 modes -A'  To be done

     Representation     4      1 modes -A'  To be done

     Representation     5      1 modes -A''  To be done

     Representation     6      1 modes -A''  To be done



     Alpha used in Ewald sum =   2.0000
     PHONON       :  3m14.48s CPU     0m59.60s WALL



     Representation #  1 mode #   1

     Self-consistent Calculation

      iter #   1 total cpu time :    70.6 secs   av.it.:   7.3
      thresh= 1.000E-02 alpha_mix =  0.700 |ddv_scf|^2 =  3.482E-04

      iter #   2 total cpu time :    78.7 secs   av.it.:  10.0
      thresh= 1.866E-03 alpha_mix =  0.700 |ddv_scf|^2 =  2.904E-03

      iter #   3 total cpu time :    87.0 secs   av.it.:   8.2
      thresh= 5.389E-03 alpha_mix =  0.700 |ddv_scf|^2 =  2.212E-06

      iter #   4 total cpu time :    96.6 secs   av.it.:  10.7
      thresh= 1.487E-04 alpha_mix =  0.700 |ddv_scf|^2 =  2.557E-07

      iter #   5 total cpu time :   107.5 secs   av.it.:  11.2
      thresh= 5.057E-05 alpha_mix =  0.700 |ddv_scf|^2 =  2.800E-07

      iter #   6 total cpu time :   116.1 secs   av.it.:  10.4
      thresh= 5.291E-05 alpha_mix =  0.700 |ddv_scf|^2 =  3.844E-09

      iter #   7 total cpu time :   124.5 secs   av.it.:  10.2
      thresh= 6.200E-06 alpha_mix =  0.700 |ddv_scf|^2 =  2.262E-10

      iter #   8 total cpu time :   132.6 secs   av.it.:  11.0
      thresh= 1.504E-06 alpha_mix =  0.700 |ddv_scf|^2 =  1.417E-10

      iter #   9 total cpu time :   141.0 secs   av.it.:  10.2
      thresh= 1.190E-06 alpha_mix =  0.700 |ddv_scf|^2 =  4.628E-11

      iter #  10 total cpu time :   149.3 secs   av.it.:  10.3
      thresh= 6.803E-07 alpha_mix =  0.700 |ddv_scf|^2 =  7.496E-12

      iter #  11 total cpu time :   160.0 secs   av.it.:  10.1
      thresh= 2.738E-07 alpha_mix =  0.700 |ddv_scf|^2 =  6.240E-12

      iter #  12 total cpu time :   169.7 secs   av.it.:  10.2
      thresh= 2.498E-07 alpha_mix =  0.700 |ddv_scf|^2 =  4.495E-13

      iter #  13 total cpu time :   178.8 secs   av.it.:  10.0
      thresh= 6.704E-08 alpha_mix =  0.700 |ddv_scf|^2 =  1.532E-14

      iter #  14 total cpu time :   187.0 secs   av.it.:  10.7
      thresh= 1.238E-08 alpha_mix =  0.700 |ddv_scf|^2 =  3.031E-15

     End of self-consistent calculation

     Convergence has been achieved 


     Representation #  2 mode #   2

     Self-consistent Calculation

      iter #   1 total cpu time :   194.5 secs   av.it.:   5.1
      thresh= 1.000E-02 alpha_mix =  0.700 |ddv_scf|^2 =  6.037E-06

      iter #   2 total cpu time :   202.8 secs   av.it.:   9.8
      thresh= 2.457E-04 alpha_mix =  0.700 |ddv_scf|^2 =  5.187E-05

      iter #   3 total cpu time :   211.0 secs   av.it.:   8.2
      thresh= 7.202E-04 alpha_mix =  0.700 |ddv_scf|^2 =  3.618E-08

      iter #   4 total cpu time :   219.3 secs   av.it.:  10.8
      thresh= 1.902E-05 alpha_mix =  0.700 |ddv_scf|^2 =  3.306E-09

      iter #   5 total cpu time :   227.5 secs   av.it.:  11.3
      thresh= 5.750E-06 alpha_mix =  0.700 |ddv_scf|^2 =  5.826E-09

      iter #   6 total cpu time :   236.7 secs   av.it.:  10.4
      thresh= 7.633E-06 alpha_mix =  0.700 |ddv_scf|^2 =  5.732E-11

      iter #   7 total cpu time :   245.3 secs   av.it.:  10.6
      thresh= 7.571E-07 alpha_mix =  0.700 |ddv_scf|^2 =  1.317E-11

      iter #   8 total cpu time :   255.0 secs   av.it.:  10.1
      thresh= 3.630E-07 alpha_mix =  0.700 |ddv_scf|^2 =  5.657E-12

      iter #   9 total cpu time :   263.0 secs   av.it.:  10.3
      thresh= 2.378E-07 alpha_mix =  0.700 |ddv_scf|^2 =  9.821E-13

      iter #  10 total cpu time :   271.3 secs   av.it.:   9.9
      thresh= 9.910E-08 alpha_mix =  0.700 |ddv_scf|^2 =  1.007E-12

      iter #  11 total cpu time :   281.4 secs   av.it.:   9.6
      thresh= 1.003E-07 alpha_mix =  0.700 |ddv_scf|^2 =  2.286E-14

      iter #  12 total cpu time :   289.7 secs   av.it.:  10.8
      thresh= 1.512E-08 alpha_mix =  0.700 |ddv_scf|^2 =  3.443E-15

     End of self-consistent calculation

     Convergence has been achieved 


     Representation #  3 mode #   3

     Self-consistent Calculation

      iter #   1 total cpu time :   297.3 secs   av.it.:   7.1
      thresh= 1.000E-02 alpha_mix =  0.700 |ddv_scf|^2 =  1.010E-04

      iter #   2 total cpu time :   305.9 secs   av.it.:  10.1
      thresh= 1.005E-03 alpha_mix =  0.700 |ddv_scf|^2 =  7.249E-04

      iter #   3 total cpu time :   314.7 secs   av.it.:   8.2
      thresh= 2.692E-03 alpha_mix =  0.700 |ddv_scf|^2 =  2.995E-06

      iter #   4 total cpu time :   323.1 secs   av.it.:   9.9
      thresh= 1.731E-04 alpha_mix =  0.700 |ddv_scf|^2 =  1.080E-07

      iter #   5 total cpu time :   332.1 secs   av.it.:  11.3
      thresh= 3.287E-05 alpha_mix =  0.700 |ddv_scf|^2 =  1.141E-07

      iter #   6 total cpu time :   340.4 secs   av.it.:  10.5
      thresh= 3.378E-05 alpha_mix =  0.700 |ddv_scf|^2 =  2.807E-09

      iter #   7 total cpu time :   349.1 secs   av.it.:  10.8
      thresh= 5.298E-06 alpha_mix =  0.700 |ddv_scf|^2 =  1.394E-10

      iter #   8 total cpu time :   357.2 secs   av.it.:  10.9
      thresh= 1.181E-06 alpha_mix =  0.700 |ddv_scf|^2 =  4.712E-11

      iter #   9 total cpu time :   365.8 secs   av.it.:  10.6
      thresh= 6.864E-07 alpha_mix =  0.700 |ddv_scf|^2 =  8.568E-11

      iter #  10 total cpu time :   374.6 secs   av.it.:   9.7
      thresh= 9.257E-07 alpha_mix =  0.700 |ddv_scf|^2 =  3.139E-13

      iter #  11 total cpu time :   383.1 secs   av.it.:  11.5
      thresh= 5.603E-08 alpha_mix =  0.700 |ddv_scf|^2 =  4.466E-13

      iter #  12 total cpu time :   392.8 secs   av.it.:  10.7
      thresh= 6.683E-08 alpha_mix =  0.700 |ddv_scf|^2 =  1.489E-13

      iter #  13 total cpu time :   401.9 secs   av.it.:  10.5
      thresh= 3.858E-08 alpha_mix =  0.700 |ddv_scf|^2 =  1.192E-14

      iter #  14 total cpu time :   410.2 secs   av.it.:   9.9
      thresh= 1.092E-08 alpha_mix =  0.700 |ddv_scf|^2 =  9.317E-15

     End of self-consistent calculation

     Convergence has been achieved 


     Representation #  4 mode #   4

     Self-consistent Calculation

      iter #   1 total cpu time :   416.8 secs   av.it.:   5.2
      thresh= 1.000E-02 alpha_mix =  0.700 |ddv_scf|^2 =  5.885E-05

      iter #   2 total cpu time :   424.7 secs   av.it.:   9.7
      thresh= 7.672E-04 alpha_mix =  0.700 |ddv_scf|^2 =  5.195E-04

      iter #   3 total cpu time :   432.5 secs   av.it.:   8.2
      thresh= 2.279E-03 alpha_mix =  0.700 |ddv_scf|^2 =  3.525E-08

      iter #   4 total cpu time :   441.5 secs   av.it.:  11.2
      thresh= 1.877E-05 alpha_mix =  0.700 |ddv_scf|^2 =  3.811E-08

      iter #   5 total cpu time :   450.7 secs   av.it.:  10.4
      thresh= 1.952E-05 alpha_mix =  0.700 |ddv_scf|^2 =  6.704E-09

      iter #   6 total cpu time :   458.6 secs   av.it.:  10.7
      thresh= 8.188E-06 alpha_mix =  0.700 |ddv_scf|^2 =  1.425E-10

      iter #   7 total cpu time :   466.5 secs   av.it.:   9.9
      thresh= 1.194E-06 alpha_mix =  0.700 |ddv_scf|^2 =  3.938E-12

      iter #   8 total cpu time :   474.8 secs   av.it.:  10.5
      thresh= 1.984E-07 alpha_mix =  0.700 |ddv_scf|^2 =  2.980E-12

      iter #   9 total cpu time :   486.4 secs   av.it.:   9.7
      thresh= 1.726E-07 alpha_mix =  0.700 |ddv_scf|^2 =  2.198E-12

      iter #  10 total cpu time :   494.3 secs   av.it.:   9.6
      thresh= 1.483E-07 alpha_mix =  0.700 |ddv_scf|^2 =  3.860E-14

      iter #  11 total cpu time :   502.2 secs   av.it.:  10.3
      thresh= 1.965E-08 alpha_mix =  0.700 |ddv_scf|^2 =  8.979E-15

     End of self-consistent calculation

     Convergence has been achieved 


     Representation #  5 mode #   5

     Self-consistent Calculation

      iter #   1 total cpu time :   509.6 secs   av.it.:   5.0
      thresh= 1.000E-02 alpha_mix =  0.700 |ddv_scf|^2 =  2.295E-07

      iter #   2 total cpu time :   518.3 secs   av.it.:  10.6
      thresh= 4.791E-05 alpha_mix =  0.700 |ddv_scf|^2 =  2.164E-08

      iter #   3 total cpu time :   526.4 secs   av.it.:  10.5
      thresh= 1.471E-05 alpha_mix =  0.700 |ddv_scf|^2 =  5.056E-10

      iter #   4 total cpu time :   534.2 secs   av.it.:   9.8
      thresh= 2.248E-06 alpha_mix =  0.700 |ddv_scf|^2 =  1.948E-12

      iter #   5 total cpu time :   544.0 secs   av.it.:  10.6
      thresh= 1.396E-07 alpha_mix =  0.700 |ddv_scf|^2 =  4.770E-14

      iter #   6 total cpu time :   553.0 secs   av.it.:  10.6
      thresh= 2.184E-08 alpha_mix =  0.700 |ddv_scf|^2 =  5.275E-16

     End of self-consistent calculation

     Convergence has been achieved 


     Representation #  6 mode #   6

     Self-consistent Calculation

      iter #   1 total cpu time :   561.7 secs   av.it.:   7.0
      thresh= 1.000E-02 alpha_mix =  0.700 |ddv_scf|^2 =  1.306E-05

      iter #   2 total cpu time :   569.9 secs   av.it.:  10.5
      thresh= 3.614E-04 alpha_mix =  0.700 |ddv_scf|^2 =  1.147E-06

      iter #   3 total cpu time :   578.3 secs   av.it.:  10.4
      thresh= 1.071E-04 alpha_mix =  0.700 |ddv_scf|^2 =  1.818E-08

      iter #   4 total cpu time :   586.9 secs   av.it.:  10.4
      thresh= 1.348E-05 alpha_mix =  0.700 |ddv_scf|^2 =  5.792E-10

      iter #   5 total cpu time :   595.8 secs   av.it.:  10.6
      thresh= 2.407E-06 alpha_mix =  0.700 |ddv_scf|^2 =  1.583E-12

      iter #   6 total cpu time :   607.8 secs   av.it.:  11.1
      thresh= 1.258E-07 alpha_mix =  0.700 |ddv_scf|^2 =  1.454E-14

      iter #   7 total cpu time :   616.6 secs   av.it.:  10.6
      thresh= 1.206E-08 alpha_mix =  0.700 |ddv_scf|^2 =  7.285E-16

     End of self-consistent calculation

     Convergence has been achieved 
 
     Number of q in the star =   12
     List of q in the star:
          1   0.166666667  -0.166666667   0.500000000
          2  -0.166666667  -0.166666667  -0.500000000
          3   0.166666667   0.166666667  -0.500000000
          4  -0.166666667   0.500000000   0.166666667
          5   0.166666667   0.500000000  -0.166666667
          6  -0.166666667  -0.500000000  -0.166666667
          7   0.166666667  -0.500000000   0.166666667
          8   0.500000000   0.166666667  -0.166666667
          9   0.500000000  -0.166666667   0.166666667
         10  -0.500000000  -0.166666667  -0.166666667
         11  -0.500000000   0.166666667   0.166666667
         12  -0.166666667   0.166666667   0.500000000
     In addition there is the -q list: 
          1  -0.166666667   0.166666667  -0.500000000
          2   0.166666667   0.166666667   0.500000000
          3  -0.166666667  -0.166666667   0.500000000
          4   0.166666667  -0.500000000  -0.166666667
          5  -0.166666667  -0.500000000   0.166666667
          6   0.166666667   0.500000000   0.166666667
          7  -0.166666667   0.500000000  -0.166666667
          8  -0.500000000  -0.166666667   0.166666667
          9  -0.500000000   0.166666667  -0.166666667
         10   0.500000000   0.166666667   0.166666667
         11   0.500000000  -0.166666667  -0.166666667
         12   0.166666667  -0.166666667  -0.500000000

     Diagonalizing the dynamical matrix

     q = (    0.166666667  -0.166666667   0.500000000 ) 

 **************************************************************************
     freq (    1) =       2.112253 [THz] =      70.457166 [cm-1]
     freq (    2) =       2.490206 [THz] =      83.064343 [cm-1]
     freq (    3) =       4.277540 [THz] =     142.683384 [cm-1]
     freq (    4) =       7.603067 [THz] =     253.611018 [cm-1]
     freq (    5) =       7.756155 [THz] =     258.717481 [cm-1]
     freq (    6) =       8.161901 [THz] =     272.251700 [cm-1]
 **************************************************************************

     Mode symmetry, C_s (m)     point group:

     freq (  1 -  1) =         70.5  [cm-1]   --> A''                
     freq (  2 -  2) =         83.1  [cm-1]   --> A'                 
     freq (  3 -  3) =        142.7  [cm-1]   --> A'                 
     freq (  4 -  4) =        253.6  [cm-1]   --> A'                 
     freq (  5 -  5) =        258.7  [cm-1]   --> A''                
     freq (  6 -  6) =        272.3  [cm-1]   --> A'                 
 
     init_run     :      1.20s CPU      0.41s WALL (       1 calls)
     electrons    :    173.54s CPU     49.26s WALL (       1 calls)

     Called by init_run:
     wfcinit      :      0.14s CPU      0.05s WALL (       1 calls)
     potinit      :      0.20s CPU      0.06s WALL (       1 calls)

     Called by electrons:
     c_bands      :    173.43s CPU     49.21s WALL (       1 calls)
     v_of_rho     :      0.06s CPU      0.02s WALL (       2 calls)
     newd         :      0.07s CPU      0.02s WALL (       2 calls)

     Called by c_bands:
     init_us_2    :      2.02s CPU      0.53s WALL (    3040 calls)
     cegterg      :    158.18s CPU     43.85s WALL (      99 calls)

     Called by sum_band:

     Called by *egterg:
     h_psi        :   1360.02s CPU    377.71s WALL (   37032 calls)
     s_psi        :     27.64s CPU      8.08s WALL (   74975 calls)
     g_psi        :      0.45s CPU      0.04s WALL (    1470 calls)
     cdiaghg      :     40.70s CPU     11.20s WALL (    1550 calls)

     Called by h_psi:
     h_psi:pot    :   1355.70s CPU    376.44s WALL (   37032 calls)
     h_psi:calbec :    225.72s CPU     61.12s WALL (   37032 calls)
     vloc_psi     :   1106.28s CPU    308.11s WALL (   37032 calls)
     add_vuspsi   :     16.58s CPU      4.96s WALL (   37032 calls)

     General routines
     calbec       :    275.55s CPU     74.72s WALL (   79295 calls)
     fft          :      2.41s CPU      0.77s WALL (     445 calls)
     ffts         :      0.81s CPU      0.22s WALL (     282 calls)
     fftw         :   1331.16s CPU    368.38s WALL (  615386 calls)
     davcio       :      8.54s CPU      2.59s WALL (   13804 calls)
 
     Parallel routines
     fft_scatt_xy :     18.82s CPU     15.57s WALL (  616113 calls)
     fft_scatt_yz :   1106.29s CPU    263.08s WALL (  616113 calls)
 
     PHONON       : 33m38.20s CPU    10m18.72s WALL

     INITIALIZATION: 
     phq_setup    :      0.02s CPU      0.08s WALL (       1 calls)
     phq_init     :     12.88s CPU      3.57s WALL (       1 calls)
 
     phq_init     :     12.88s CPU      3.57s WALL (       1 calls)
     set_drhoc    :      0.42s CPU      0.13s WALL (       3 calls)
     init_vloc    :      0.01s CPU      0.01s WALL (       2 calls)
     init_us_1    :      1.46s CPU      0.47s WALL (       2 calls)
     newd         :      0.07s CPU      0.02s WALL (       2 calls)
     dvanqq       :      0.15s CPU      0.04s WALL (       1 calls)
     drho         :     10.79s CPU      2.98s WALL (       1 calls)
 
     DYNAMICAL MATRIX:
     dynmat0      :      1.61s CPU      0.44s WALL (       1 calls)
     phqscf       :   1822.52s CPU    557.52s WALL (       1 calls)
     dynmatrix    :      0.12s CPU      0.07s WALL (       1 calls)
 
     phqscf       :   1822.52s CPU    557.52s WALL (       1 calls)
     solve_linter :   1817.56s CPU    555.90s WALL (       6 calls)
     drhodv       :      2.51s CPU      0.71s WALL (       6 calls)
 
     dynmat0      :      1.61s CPU      0.44s WALL (       1 calls)
     dynmat_us    :      1.13s CPU      0.31s WALL (       1 calls)
     d2ionq       :      0.01s CPU      0.00s WALL (       1 calls)
     dynmatcc     :      0.42s CPU      0.11s WALL (       1 calls)
 
     dynmat_us    :      1.13s CPU      0.31s WALL (       1 calls)
     addusdynmat  :      0.00s CPU      0.00s WALL (       1 calls)
 
     phqscf       :   1822.52s CPU    557.52s WALL (       1 calls)
     solve_linter :   1817.56s CPU    555.90s WALL (       6 calls)
 
     solve_linter :   1817.56s CPU    555.90s WALL (       6 calls)
     dvqpsi_us    :     27.10s CPU      7.45s WALL (     240 calls)
     ortho        :     22.86s CPU      6.74s WALL (    2560 calls)
     cgsolve      :   1419.88s CPU    396.20s WALL (    2560 calls)
     incdrhoscf   :    139.85s CPU     48.20s WALL (    2560 calls)
     addusddens   :      2.09s CPU      0.54s WALL (      70 calls)
     vpsifft      :     86.39s CPU     24.03s WALL (    2320 calls)
     dv_of_drho   :      0.50s CPU      0.14s WALL (      64 calls)
     mix_pot      :     13.77s CPU     10.44s WALL (      64 calls)
     psymdvscf    :     21.71s CPU      5.88s WALL (      64 calls)
     newdq        :      2.04s CPU      0.52s WALL (      64 calls)
     adddvscf     :      5.54s CPU      1.52s WALL (    2320 calls)
     drhodvus     :      0.01s CPU      0.00s WALL (       6 calls)
 
     dvqpsi_us    :     27.10s CPU      7.45s WALL (     240 calls)
     dvqpsi_us_on :      6.79s CPU      1.87s WALL (     240 calls)
 
     cgsolve      :   1419.88s CPU    396.20s WALL (    2560 calls)
     ch_psi       :   1392.04s CPU    388.18s WALL (   35383 calls)
 
     ch_psi       :   1392.04s CPU    388.18s WALL (   35383 calls)
     h_psi        :   1360.02s CPU    377.71s WALL (   37032 calls)
     last         :     87.01s CPU     25.50s WALL (   35383 calls)
 
     h_psi        :   1360.02s CPU    377.71s WALL (   37032 calls)
     add_vuspsi   :     16.58s CPU      4.96s WALL (   37032 calls)
 
     incdrhoscf   :    139.85s CPU     48.20s WALL (    2560 calls)
     addusdbec    :      6.98s CPU      1.69s WALL (    2800 calls)
 
     drhodvus     :      0.01s CPU      0.00s WALL (       6 calls)
 
      General routines
     calbec       :    275.55s CPU     74.72s WALL (   79295 calls)
     fft          :      2.41s CPU      0.77s WALL (     445 calls)
     ffts         :      0.81s CPU      0.22s WALL (     282 calls)
     fftw         :   1331.16s CPU    368.38s WALL (  615386 calls)
     davcio       :      8.54s CPU      2.59s WALL (   13804 calls)
     write_rec    :     28.22s CPU     20.95s WALL (      70 calls)
 
 
     PHONON       : 33m38.20s CPU    10m18.72s WALL

 
   This run was terminated on:   1:45:33  24Dec2018            

=------------------------------------------------------------------------------=
   JOB DONE.
=------------------------------------------------------------------------------=
